LAMMPS (16 Feb 2016)
# ------------------------ INITIALIZATION ----------------------------
echo both
#log		log.c
units           metal
dimension       3
boundary        p p p
atom_style      atomic
shell         mkdir  cfg
shell         mkdir  dump


# ----------------------- ATOM DEFINITION & Force Field -------------
read_data     NPT_relaxed.data
  orthogonal box = (-236.212 -0.033983 -978.253) to (236.212 15.3711 20.2777)
  16 by 1 by 32 MPI processor grid
  reading atoms ...
  575184 atoms
  reading velocities ...
  575184 velocities

pair_style      eam/alloy
pair_coeff  	  * * Cu01.eam.alloy Cu

#---------------------- DEFINE Laser GERION and GROUP ----------------
region       R1  block -75  75  INF  INF  INF  5  units box
group        G1 region R1
182874 atoms in group G1
group        G2 subtract all G1
392310 atoms in group G2


#define     temperature/pressure calculation  group
variable    x1atom atom "x>=0  &&  x<5 &&  z>-40 && z<1"     ##NEW!!!!!!!!!!!!
variable    x2atom atom "x>=-236.21  &&  x<-231.21 &&  z>-40 && z<1"
variable    x3atom atom "x>=0  &&  x<5 &&  z>-20 && z<1"
variable    x4atom atom "x>=-236.21  &&  x<-231.21 &&  z>-20 && z<1"
variable    x5atom atom "x>=196  &&  x<200 &&  z>-40 && z<1"

group       x1atom variable x1atom
239 atoms in group x1atom
group       x2atom variable x2atom
248 atoms in group x2atom
group       x3atom variable x3atom
121 atoms in group x3atom
group       x4atom variable x4atom
129 atoms in group x4atom
group       x5atom variable x5atom
209 atoms in group x5atom


compute      COM1x x1atom com
compute      COM2x x2atom com
compute      COM3x x3atom com
compute      COM4x x4atom com
compute      COM5x x5atom com

compute      COMall all com

#Temperature profile
#variable      Tprofile atom 300*(1+(step/5000)*2.5*exp(z/40))
#variable tmp equal "lz"
#variable L0 equal ${tmp}
variable      Tprofile atom  300+600*(step/5000)*exp(z/40)*exp(-x*x/11250)


# ------------------------- SETTINGS ---------------------------------
thermo          100
thermo_style    custom step lx pxx pyy pzz temp c_COM1x[1] c_COM1x[2] c_COM1x[3] c_COM2x[1] c_COM2x[2] c_COM2x[3] c_COM3x[1] c_COM3x[2] c_COM3x[3] c_COM4x[1] c_COM4x[2] c_COM4x[3]  c_COM5x[1] c_COM5x[2] c_COM5x[3] c_COMall[1] c_COMall[2] c_COMall[3]

timestep       0.002


compute dispall all displace/atom
# ---------------- Run Laser Material Interaction --------------------
#dump          1 all custom 1000 dump/z1dump.atom id type x y z c_dispall[1]  c_dispall[2]  c_dispall[3] c_dispall[4]
#dump          2 all cfg 100 cfg/*.cfg mass type xs ys zs
#dump_modify   2 element Al

#relax for 2 PS
#fix           1 all nvt temp 300.0 300.0 0.1
#run  1000
#unfix         1

fix           1  all nve
fix           3temp  all  langevin  v_Tprofile  0  0.1  378411   #TEST ALL
run           5000
Neighbor list info ...
  1 neighbor list requests
  update every 1 steps, delay 10 steps, check yes
  max neighbors/atom: 2000, page size: 100000
  master list distance cutoff = 7.50679
  ghost atom cutoff = 7.50679
  binsize = 3.75339 -> bins = 126 5 267
Memory usage per processor = 0.302708 Mbytes
Step Lx Pxx Pyy Pzz Temp COM1x[1] COM1x[2] COM1x[3] COM2x[1] COM2x[2] COM2x[3] COM3x[1] COM3x[2] COM3x[3] COM4x[1] COM4x[2] COM4x[3] COM5x[1] COM5x[2] COM5x[3] COMall[1 COMall[2 COMall[3 
       0    472.42344   -644.10535   -754.09816   -821.54248    300.08049    2.6394938    7.2989895   -19.578213   -233.98208    7.3171789     -19.2875    2.5425609    7.2204048   -9.1014139   -234.01036    7.2768534   -9.1466765    197.68943      7.25259   -19.235176  -0.64311168    7.0254614   -469.90995 
     100    472.42344   -658.64772   -757.94705   -776.73847    299.41399    2.6496907    7.3006624   -19.548777   -233.99932    7.2967252   -19.258442    2.5483618    7.2256355   -9.0633995   -234.01813    7.2490435   -9.1054867     197.6845    7.2469786     -19.2331  -0.64327834    7.0259588   -469.91087 
     200    472.42344   -629.39283   -716.14288   -771.78618    299.77452    2.6540204    7.2935877   -19.546073     -234.001    7.2912498   -19.264622    2.5490853    7.2517543   -9.0428333   -234.01507    7.2415862   -9.1141589    197.66937    7.2643095   -19.224631  -0.64329637    7.0266166   -469.91167 
     300    472.42344   -616.40378   -723.50787   -741.21247    300.66249    2.6250121    7.2703197   -19.523577   -234.00431    7.2827438   -19.244277    2.5182565    7.2389721   -9.0356067    -234.0232    7.2126031   -9.0906288    197.66113    7.2730956   -19.219735  -0.64405713    7.0267172   -469.91147 
     400    472.42344   -615.72683   -698.00044   -755.02881    300.35363    2.6298152    7.2554557   -19.525834   -234.01718    7.2553471   -19.221629    2.5056845    7.2362897   -9.0433692   -234.02206    7.1986596   -9.0657776    197.67621    7.2610879   -19.235549  -0.64402066    7.0265338   -469.91186 
     500    472.42344   -613.13892   -738.61519   -797.56264    300.99014    2.6529825    7.2611522   -19.535581   -234.01849     7.260179   -19.234585    2.5273769    7.2125202   -9.0261035   -234.03809    7.1979483   -9.0808426    197.67802    7.2477635   -19.238271   -0.6442826    7.0271951   -469.91256 
     600    472.42344    -599.1109   -675.56236   -759.10057    301.11082    2.6467132    7.2622798   -19.535013   -233.99423    7.2671553   -19.253876    2.5217851    7.2235502   -9.0263301   -234.01576    7.1904175   -9.1084197    197.66487    7.2130123   -19.208799  -0.64421393    7.0274157   -469.91249 
     700    472.42344    -542.2797   -663.97944    -698.0576    301.89733    2.6367905    7.2934564   -19.548406    -233.9932    7.2767096   -19.270685    2.5007007    7.2450787   -9.0421808   -233.99999    7.2011169   -9.1248121    197.67613    7.2148051   -19.223808  -0.64457154    7.0272809   -469.91244 
     800    472.42344   -593.84198   -676.68845   -708.24343    301.93657    2.6207186    7.3098762   -19.534731   -233.99194    7.2668669   -19.248669    2.4870585    7.2616339   -9.0482177   -234.00574    7.2086576   -9.0990708    197.67547    7.1995894   -19.234975  -0.64385806     7.026995   -469.91188 
     900    472.42344   -565.26279   -651.07182   -712.76876    301.64137    2.6480517    7.2907896   -19.506894   -233.98926    7.2541863   -19.259088    2.5465543    7.2449857   -8.9757179   -234.01817    7.1886958   -9.1170259    197.66769    7.1955607   -19.205194  -0.64350003    7.0273328   -469.91141 
    1000    472.42344   -529.11904   -624.59527   -682.51802    301.71221    2.6414296    7.2889538   -19.528273   -233.98816    7.2476888   -19.243747    2.5286799    7.2580916   -8.9934358   -234.00907    7.1985662   -9.0955881    197.67901    7.1704802   -19.229403  -0.64344644    7.0283127   -469.91115 
    1100    472.42344   -574.72162   -659.81576   -676.30155    302.44672    2.6493148     7.275004   -19.528905    -233.9687    7.2206238   -19.247379    2.5313744    7.2411402   -9.0010102   -233.99423    7.1485935   -9.0714087    197.68325    7.1528184   -19.247459  -0.64421198    7.0289457   -469.91022 
    1200    472.42344   -516.92853   -601.65605   -642.85672    302.44911    2.6603925    7.2539029      -19.537   -233.97137    7.2313563   -19.226423    2.5335436    7.2331971   -9.0109133   -233.99914    7.1812093   -9.0700529    197.66784    7.1343586   -19.227262  -0.64422683    7.0290654   -469.91015 
    1300    472.42344   -518.98693   -604.52874   -640.65776    302.98853    2.6399388    7.2669126   -19.530127   -233.96889    7.2262247   -19.243121    2.5430187    7.2446862   -8.9884038   -233.99687    7.1733228   -9.1038711    197.68946    7.1659069   -19.228171  -0.64384245    7.0286916   -469.90989 
    1400    472.42344   -516.06088   -628.79978   -717.17646     303.3994     2.656364    7.2769335   -19.536622   -233.96539    7.2411189   -19.233338    2.5513803    7.2389743   -9.0041659   -233.97589    7.1906388   -9.0888433    197.70081    7.1988486   -19.226861  -0.64389625    7.0286804   -469.91026 
    1500    472.42344   -487.08593   -588.83819   -697.03084    303.60391     2.639117    7.2724902   -19.511377   -233.98119    7.2558787   -19.235196    2.5397502    7.2274617    -8.962837   -233.98807    7.2228307   -9.0888173    197.69693    7.2408553   -19.190458  -0.64396893    7.0291362   -469.91016 
    1600    472.42344   -495.88423   -612.43479    -652.9225    303.67459    2.6387156    7.2798031   -19.547061   -233.98921    7.2401938   -19.231111    2.5232903    7.2458281   -9.0077171   -233.99982     7.202808   -9.0714443    197.71467    7.2188326   -19.207587  -0.64410056     7.029445   -469.90975 
    1700    472.42344    -486.6702   -568.02592   -636.90172    304.17713    2.6436347    7.2890123    -19.56402   -233.97659    7.2430346   -19.201905    2.5269944    7.2783828   -9.0559025   -233.99465    7.1929918     -9.05743    197.71835    7.2098242    -19.24737    -0.643636    7.0287495   -469.90958 
    1800    472.42344   -468.43221   -562.01324   -621.40148    303.93804    2.6162853    7.2880102   -19.568917    -233.9838    7.2400341   -19.221717    2.4949087    7.2765415   -9.0615345   -233.99947    7.1807378    -9.077361     197.7276    7.2006431   -19.234931  -0.64329596    7.0288732   -469.90899 
    1900    472.42344   -466.28418   -548.38679   -609.46745    303.95003    2.6297668    7.2989565   -19.539478   -233.97403    7.2698687   -19.232051    2.4909638    7.2862989   -9.0418943   -234.00355     7.199278   -9.0990567    197.72761    7.1927848   -19.236578  -0.64308611    7.0296005   -469.90847 
    2000    472.42344   -450.04499   -493.83398   -588.26758    304.76573    2.6050616    7.3105961    -19.53472   -233.95742    7.2748059   -19.227965    2.4756507    7.3091463   -9.0146029   -233.97848    7.2381596   -9.0665036    197.70727    7.2149371   -19.239448  -0.64298404    7.0298989   -469.90794 
    2100    472.42344   -455.32993   -549.22167   -594.73127    304.30872    2.5811469    7.2971413   -19.537171   -233.95185    7.2838314   -19.229968    2.4540408    7.2839731    -9.003992   -233.96577    7.2380316   -9.0657989    197.71956     7.218312   -19.258127  -0.64357771     7.030159   -469.90747 
    2200    472.42344    -441.8993   -541.18107    -614.9207    304.51014    2.5994384    7.3153882   -19.537833   -233.94648    7.2881014   -19.217776    2.4570712    7.3040689   -9.0074827   -233.94703    7.2293122   -9.0738289    197.70546    7.2155327   -19.255206  -0.64415596    7.0305289   -469.90725 
    2300    472.42344   -424.02954   -475.06345   -592.92383    304.49957    2.5975516    7.3002386   -19.549926   -233.96156    7.2642609   -19.225833    2.4674886    7.2655837    -9.039731   -233.98496    7.2056801   -9.0783895    197.69992    7.2331809   -19.236373  -0.64461428    7.0304616     -469.907 
    2400    472.42344   -438.32887   -477.50727   -599.75253    305.36887    2.6120199      7.27602   -19.540051   -233.96148     7.283331   -19.248787     2.474783    7.2476243   -9.0249457   -234.00184    7.2278447    -9.084103    197.69473    7.2218548   -19.228957  -0.64504833    7.0298689   -469.90671 
    2500    472.42344   -469.59116   -514.66445   -584.33106    305.48712     2.618065    7.2764583   -19.510068   -233.96943    7.2707494   -19.227094    2.5002246    7.2577779   -8.9751609   -234.01465    7.2236239   -9.0717246    197.71094    7.2267811   -19.252622  -0.64553891    7.0298951   -469.90691 
    2600    472.42344    -457.9687   -502.50784   -604.24725    305.17581    2.6012815    7.2943709   -19.532139   -233.97487    7.2529783   -19.220044    2.4553938    7.2983104   -8.9959528    -234.0186    7.2295037   -9.0685289    197.68456    7.2238576   -19.265251  -0.64538725    7.0298078   -469.90734 
    2700    472.42344   -404.83455   -506.10049   -638.07651    305.69903    2.6167124    7.2975429   -19.521741   -233.97565    7.2386131   -19.228128    2.4777022    7.2993009   -8.9809881   -234.00467     7.244473   -9.0774556    197.69149    7.2088876   -19.268437  -0.64543409    7.0295608   -469.90698 
    2800    472.42344   -393.86255   -464.46034   -564.51398    306.22527    2.6374853    7.3217644   -19.530992   -233.97193    7.2426887   -19.245169     2.505569    7.3032949    -9.005865   -234.01419     7.249995   -9.0950841    197.70769    7.2019602   -19.246068  -0.64493347    7.0295165   -469.90773 
    2900    472.42344   -405.42332   -474.31938   -573.05795    306.23907    2.6372925    7.3486406   -19.538757   -234.00022    7.2356455   -19.230416    2.5114884    7.3067418   -9.0127451   -234.02226    7.2273487   -9.0836945    197.72601    7.2038089   -19.262647  -0.64569555    7.0298425   -469.90848 
    3000    472.42344   -397.60953   -481.66565   -577.99465    306.17664    2.6290351    7.3517396   -19.524981   -233.99594    7.2715391   -19.232743    2.5034753    7.3019121   -9.0157716   -234.00509     7.245151   -9.0879989    197.73094    7.1933971   -19.263824  -0.64661435    7.0301915   -469.90863 
    3100    472.42344   -420.76206   -493.73199   -605.10882    306.63179    2.6257171    7.3485923   -19.527184   -233.97347    7.2806089   -19.209558    2.4917966    7.3152242   -8.9885516   -233.97331    7.2295985   -9.0614684    197.70528    7.2062952   -19.270351  -0.64742017    7.0306549   -469.90856 
    3200    472.42344   -371.68264    -477.8531   -520.66319      306.318    2.6234946    7.3580151   -19.543381   -233.99372    7.2930954   -19.212075    2.4929972    7.3192456   -9.0137636   -234.00642     7.241993   -9.0797607    197.68585    7.2123017   -19.259764   -0.6472107    7.0305711   -469.90843 
    3300    472.42344   -320.63627   -398.31249   -501.54837    307.06893    2.6094135    7.3758473   -19.519796   -233.97995    7.2916511   -19.213958    2.4908247    7.3391074   -8.9795337   -234.01276    7.2407026   -9.0542791    197.71638    7.1862824   -19.259841  -0.64663375    7.0306553   -469.90836 
    3400    472.42344   -334.32437   -436.13196   -544.26566    307.28953    2.6184989    7.3623245   -19.522476   -233.97761    7.3071755   -19.230667    2.5240684    7.3121453    -8.983623   -233.99076    7.2497004    -9.090687    197.71258    7.2060954   -19.245646  -0.64625457    7.0302402   -469.90789 
    3500    472.42344   -366.61389   -465.78515   -561.06332    307.32666    2.6181481    7.3148285     -19.4882    -233.9944    7.2960976    -19.21518    2.5034861    7.2714003   -8.9252803   -234.00678    7.2432513   -9.0550142     197.7348    7.2065572   -19.265606  -0.64654456       7.0301   -469.90788 
    3600    472.42344   -289.16243   -394.99784   -493.59168    307.74276     2.634891    7.3024649   -19.485828   -233.96206    7.2700322    -19.20488    2.5058807    7.2467378   -8.9543867   -233.96953    7.2083388   -9.0414059     197.7137    7.1923689   -19.261506  -0.64723249    7.0294862   -469.90747 
    3700    472.42344   -308.12881   -402.52435   -509.82771    307.92356    2.5897854    7.3078015   -19.461757   -233.93973    7.2514369   -19.222244    2.4595033    7.2056624   -8.8947039   -233.95012     7.206421   -9.0734692    197.72883     7.200648   -19.258886  -0.64736404    7.0294175   -469.90734 
    3800    472.42344   -284.45762   -383.26503   -538.39252    308.21374    2.5830669    7.2698737   -19.475599   -233.94217    7.2302746   -19.246806    2.4754994    7.1476799   -8.9212028    -233.9443    7.1443476   -9.0869331     197.7365     7.207857   -19.262174  -0.64722816    7.0289557   -469.90818 
    3900    472.42344   -299.00238   -382.27076   -519.85699    308.24094    2.5914597     7.295141   -19.482993   -233.93462     7.244345   -19.218427    2.5071916    7.1666887    -8.912052   -233.94644    7.1499814    -9.050762    197.72222    7.2042226   -19.264047  -0.64684676    7.0282335   -469.90921 
    4000    472.42344   -292.73509   -404.21885   -510.90718    308.70436    2.6188512    7.2746047   -19.484045   -233.94638      7.23194   -19.204006    2.5222426    7.1958142   -8.9331812   -233.96163    7.1278929   -9.0312017    197.71755    7.2047555   -19.253349  -0.64624484    7.0279058   -469.90961 
    4100    472.42344   -295.10504   -377.36516   -477.50773    308.63384    2.6187947    7.2811844     -19.4997   -233.97535    7.2351119    -19.20288    2.5191876    7.2540271   -8.9348714   -233.98019    7.1557218   -9.0502284    197.72409    7.2177397   -19.274276  -0.64577452    7.0281378   -469.90985 
    4200    472.42344   -329.35312   -394.46603   -472.68544    309.01467    2.6365925    7.3084772   -19.496957   -233.97704    7.2350079   -19.221818    2.5285057    7.2978957   -8.9075625   -233.98061    7.1593233   -9.0659706    197.73779     7.208934    -19.27974  -0.64578372    7.0279699   -469.91006 
    4300    472.42344   -263.94256   -362.23584   -434.62844    309.60578    2.6617726    7.2899415   -19.493011   -234.01119    7.2225728   -19.212396    2.5288074    7.2253756   -8.9110515   -234.01953    7.1181982   -9.0846149    197.72695    7.2210982   -19.280986  -0.64521157    7.0279353   -469.91042 
    4400    472.42344   -257.55382   -368.78549   -504.32249    309.80397    2.6759464    7.2943959    -19.50614   -234.00367    7.2143392   -19.234878    2.5643063    7.2111338   -8.9244351   -234.01415    7.1171555   -9.0946009    197.70759    7.2615893   -19.271916  -0.64555215     7.027811   -469.91081 
    4500    472.42344   -227.67514    -341.9845   -458.07659    309.52706    2.6347596    7.3089874   -19.495744   -233.98662    7.2091027   -19.226453    2.5116957    7.1949912   -8.9137608   -234.02426    7.1226806   -9.0936188    197.74112    7.2577486   -19.252551  -0.64543442    7.0274019   -469.91045 
    4600    472.42344    -234.6728   -300.77271   -404.34896    310.03761    2.6383401    7.3055635   -19.498129   -233.99019     7.240325   -19.228667    2.4907116    7.1807342    -8.907293   -234.03167    7.1492915   -9.1049114    197.72347    7.2306715   -19.269895  -0.64557302    7.0271501    -469.9105 
    4700    472.42344   -213.25616   -326.84466   -443.26766     310.6096    2.6332947     7.318214   -19.466531   -233.98633    7.2324495   -19.220621    2.5045822    7.2232605   -8.8566946   -234.01632    7.1253753   -9.0910125    197.73118    7.2389847     -19.2924  -0.64529788    7.0265296   -469.91027 
    4800    472.42344   -175.27648   -282.39612   -385.61414    310.32342    2.6258561    7.3114171   -19.440511   -234.01435    7.2213607   -19.201508     2.494406     7.216453   -8.8436927   -234.03694    7.1161339   -9.0349012    197.72973    7.2361351   -19.294493  -0.64554677    7.0261585   -469.91049 
    4900    472.42344   -138.06286   -281.78175   -375.22971    311.12928      2.60292    7.3149632   -19.392598   -234.00039    7.2181291   -19.219512    2.4712627    7.1977385   -8.7804574   -234.03453    7.1381333   -9.0470793     197.7248    7.2458436   -19.295991  -0.64577552    7.0269735   -469.91051 
    5000    472.42344   -201.58247   -282.51944   -392.53379    310.83908    2.6335017    7.2996938   -19.403554   -234.00976    7.2470614   -19.228258    2.4926737    7.1819957    -8.810629    -234.0709    7.1439931   -9.0481019    197.70851    7.2340881   -19.277616  -0.64604511    7.0269713   -469.91099 
Loop time of 46.9326 on 512 procs for 5000 steps with 575184 atoms

Performance: 18.409 ns/day, 1.304 hours/ns, 106.536 timesteps/s
99.9% CPU use with 512 MPI tasks x no OpenMP threads

MPI task timing breakdown:
Section |  min time  |  avg time  |  max time  |%varavg| %total
---------------------------------------------------------------
Pair    | 13.146     | 28.928     | 31.438     |  62.0 | 61.64
Neigh   | 0.00038576 | 0.10115    | 0.22897    |   7.1 |  0.22
Comm    | 2.3239     | 4.7904     | 13.925     |  75.9 | 10.21
Output  | 0.031429   | 0.054262   | 0.26182    |  15.7 |  0.12
Modify  | 0.042677   | 1.9432     | 2.2261     |  28.2 |  4.14
Other   |            | 11.12      |            |       | 23.68

Nlocal:    1123.41 ave 1248 max 0 min
Histogram: 16 0 0 0 16 0 0 0 16 464
Nghost:    3606.5 ave 4045 max 391 min
Histogram: 16 0 0 14 2 0 16 0 0 464
Neighs:    79149.6 ave 88609 max 0 min
Histogram: 16 0 0 16 0 0 0 0 16 464

Total # of neighbors = 40524597
Ave neighs/atom = 70.455
Neighbor list builds = 25
Dangerous builds = 0


variable  com1_x equal "c_COM1x[1]"
variable  com1_y equal "c_COM1x[2]"
variable  com1_z equal "c_COM1x[3]"
variable  com2_x equal "c_COM2x[1]"
variable  com2_y equal "c_COM2x[2]"
variable  com2_z equal "c_COM2x[3]"
variable  com3_x equal "c_COM3x[1]"
variable  com3_y equal "c_COM3x[2]"
variable  com3_z equal "c_COM3x[3]"
variable  com4_x equal "c_COM4x[1]"
variable  com4_y equal "c_COM4x[2]"
variable  com4_z equal "c_COM4x[3]"
variable  com5_x equal "c_COM5x[1]"
variable  com5_y equal "c_COM5x[2]"
variable  com5_z equal "c_COM5x[3]"
variable  comall_x equal "c_COMall[1]"
variable  comall_y equal "c_COMall[2]"
variable  comall_z equal "c_COMall[3]"


fix          2 all print 100 "${com1_x}   ${com1_y}   ${com1_z}  ${com2_x}   ${com2_y}   ${com2_z} ${com3_x}   ${com3_y}   ${com3_z} ${com4_x}   ${com4_y}   ${com4_z} ${com5_x}   ${com5_y}   ${com5_z} ${comall_x}   ${comall_y}   ${comall_z}" file COM.data screen no
#-------------------------- Wave Propagation -------------------------
unfix        3temp
run          1000000
Memory usage per processor = 0.302708 Mbytes
Step Lx Pxx Pyy Pzz Temp COM1x[1] COM1x[2] COM1x[3] COM2x[1] COM2x[2] COM2x[3] COM3x[1] COM3x[2] COM3x[3] COM4x[1] COM4x[2] COM4x[3] COM5x[1] COM5x[2] COM5x[3] COMall[1 COMall[2 COMall[3 
    5000    472.42344   -201.58247   -282.51944   -392.53379    310.83908    2.6335017    7.2996938   -19.403554   -234.00976    7.2470614   -19.228258    2.4926737    7.1819957    -8.810629    -234.0709    7.1439931   -9.0481019    197.70851    7.2340881   -19.277616  -0.64604511    7.0269713   -469.91099 
    5100    472.42344   -225.20336   -261.37365   -429.25692    310.68482    2.6326266     7.273814   -19.398074   -234.00398    7.2479648   -19.252969    2.4760713    7.2137138   -8.7997864    -234.0433    7.1506155   -9.0926333    197.71253    7.2448678   -19.266589  -0.64574128    7.0262595   -469.91176 
    5200    472.42344   -228.46966   -322.21495   -428.05348    310.46083    2.6569119    7.2336113   -19.429032   -233.98199    7.2623719   -19.261667    2.5008707    7.1571093   -8.8239177   -234.02506    7.1946508   -9.1170999    197.72677    7.2184915   -19.229978  -0.64543746    7.0255476   -469.91253 
    5300    472.42344   -229.56582    -315.3945   -462.81145    310.76123    2.6945075    7.2399881    -19.40671   -233.97657    7.2548508   -19.259793    2.5353917    7.1997521   -8.7895585   -233.98122    7.2013362   -9.0944914    197.73909    7.1832697   -19.221606  -0.64513363    7.0248357    -469.9133 
    5400    472.42344   -253.66586   -371.95441   -470.69748    311.05469    2.7322406    7.2501649   -19.375276   -233.98084    7.2455182    -19.27118    2.6261588    7.2534935   -8.7295593   -233.98612    7.1900356   -9.1013572    197.75948    7.1715958   -19.236365   -0.6448298    7.0241239   -469.91407 
    5500    472.42344   -272.73388   -349.75908   -496.01203    310.84808    2.7677386    7.2980968   -19.319691   -233.97788    7.2542786   -19.319785    2.6485454    7.2834138   -8.6445198   -233.98092    7.1993913   -9.1693757    197.74919    7.1550925   -19.236858  -0.64452597     7.023412   -469.91484 
    5600    472.42344   -299.58123   -327.31211   -541.55619    310.99805    2.7864683    7.2901377   -19.303229   -233.95371    7.2604283   -19.350718    2.6230736    7.2675587   -8.6088584   -233.94141    7.1924015   -9.2030197    197.76501     7.158862   -19.218712  -0.64422215    7.0227001   -469.91561 
    5700    472.42344   -287.53568   -379.21565   -556.64158    311.30459    2.7933552    7.2522088   -19.318495   -233.95388    7.2404029   -19.306718    2.6417354    7.2191321   -8.6589639   -233.93551     7.177995   -9.1513746    197.75666    7.1447129   -19.194322  -0.64391832    7.0219883   -469.91638 
    5800    472.42344   -280.21064   -317.38339   -492.76653    310.34669    2.7312934    7.2359663   -19.343214   -233.95787    7.2081366   -19.333231    2.5918132    7.1815658    -8.706631   -233.94061    7.1632777   -9.1912825     197.7468     7.114226   -19.209507  -0.64361449    7.0212764   -469.91715 
    5900    472.42344   -249.84257   -354.65322    -516.6608    310.23535    2.7381584    7.2449719   -19.348375   -233.96322     7.205176   -19.342907    2.5996911    7.1555988   -8.6985427   -233.93539    7.1551947   -9.1928554    197.76165     7.127442   -19.208862  -0.64331067    7.0205645   -469.91791 
    6000    472.42344   -280.54394   -362.14426   -513.20933    310.68956    2.7074017    7.2216883   -19.311057    -233.9652    7.2233117   -19.349777    2.5691501    7.1215387   -8.6856068   -233.92889    7.1397521   -9.2084144     197.7589    7.1121479   -19.210017  -0.64300684    7.0198527   -469.91868 
    6100    472.42344   -295.48982   -333.06802   -533.58916    310.88908    2.7120291    7.2071732   -19.304269   -233.98206     7.192199   -19.369015    2.5768385    7.1039003   -8.6761211   -233.94508    7.0874079   -9.2066109    197.77309    7.1423531   -19.193039  -0.64270301    7.0191408   -469.91945 
    6200    472.42344   -236.75187   -331.79533   -482.46389    310.25414    2.7074298    7.1864354   -19.328694    -233.9892     7.161161   -19.404984    2.5428957    7.1036799   -8.7181801   -233.97032     7.053526    -9.207831    197.76451    7.1559659   -19.225833  -0.64239919    7.0184289   -469.92022 
    6300    472.42344   -231.26505    -324.7549   -474.47869    310.74446    2.7371682    7.1429819   -19.298536   -233.98252    7.1645678   -19.387245    2.5824206    7.1033972   -8.7019853   -233.97581    7.0649214   -9.2212238    197.79806    7.1527635   -19.242464  -0.64209536    7.0177171   -469.92099 
    6400    472.42344   -243.01382   -305.18429   -445.12221    310.58633    2.7487186     7.149548   -19.293304   -233.99289    7.1363621   -19.395777    2.6079085    7.0984182   -8.6908383   -233.98403    7.0671118   -9.2348195    197.79686    7.1594421   -19.225864  -0.64179153    7.0170052   -469.92176 
    6500    472.42344   -223.55887   -338.18461    -413.5351    310.83777    2.7507399    7.1550587   -19.248662   -234.01268    7.0928707    -19.40397     2.606396    7.1170846   -8.6420465   -234.01713    7.0503621   -9.2678311    197.79025    7.1725398   -19.296646  -0.64148771    7.0162933   -469.92253 
    6600    472.42344   -226.88261    -302.9258   -432.56677    311.06625    2.7838033    7.1464102   -19.231208   -234.01567    7.0455526   -19.391884    2.6590487    7.1220976   -8.6280108   -234.01879    6.9988213   -9.2552985     197.8138    7.1388252   -19.325499  -0.64118388    7.0155815    -469.9233 
    6700    472.42344   -195.98574   -277.75297   -396.06635    310.74065    2.7880152    7.1282053   -19.230253    -234.0187    7.0508548   -19.394916    2.6825639    7.0521035    -8.630489   -234.03864    6.9716017   -9.2765335    197.80608     7.103648   -19.331599  -0.64088005    7.0148696   -469.92407 
    6800    472.42344   -210.66894   -267.77183   -431.19246    310.84526    2.7437021    7.1427093    -19.21304   -234.03192    7.0383125   -19.386248    2.6119093    7.0761077   -8.5965706   -234.07712    6.9468859   -9.2507427    197.81084    7.0785419   -19.344179  -0.64057623    7.0141577   -469.92484 
    6900    472.42344   -217.35525   -348.25409   -415.45793    311.15784    2.7315729    7.1531248   -19.175004   -234.02455    6.9905143   -19.396632    2.5819493    7.0932839   -8.5578461   -234.04872    6.9308616   -9.2387534    197.77345    7.0874778    -19.31607   -0.6402724    7.0134459   -469.92561 
    7000    472.42344   -198.15002   -277.16437   -420.61757    310.55304    2.7720452    7.2310726    -19.13951   -234.00897      6.96719   -19.378636    2.6421156    7.2188597   -8.5064241   -234.02418    6.9433368   -9.2057267    197.77588      7.07902   -19.308618  -0.63996857     7.012734   -469.92638 
    7100    472.42344   -192.21798   -299.34174   -396.14913    310.62365    2.7972047    7.2234664   -19.109054   -234.02087    6.9877257   -19.358413    2.6664785    7.2582552    -8.501741   -234.04153    6.9542107   -9.1565439    197.79547    7.0636094   -19.314101  -0.63966474    7.0120221   -469.92715 
    7200    472.42344    -174.2127   -304.29845   -395.04303    310.34354    2.7988246    7.1899255   -19.142509    -234.0082    7.0208617   -19.327821    2.6639198    7.1901572   -8.4942675   -234.03641    6.9537758   -9.1051077    197.77427    7.0716116   -19.318521  -0.63936092    7.0113103   -469.92792 
    7300    472.42344    -194.0919   -274.43392   -376.37176    310.90227    2.8005398    7.2023128   -19.170328   -234.02787    7.0365603   -19.329832    2.6406837    7.1413967   -8.5118625   -234.04114    6.9401512   -9.1376381    197.76492    7.0769922   -19.309094  -0.63905709    7.0105984   -469.92869 
    7400    472.42344   -225.55052   -261.90239   -398.32792    311.02853     2.834999    7.2292892   -19.172848   -234.02064    7.0734707   -19.331934    2.6522717    7.1618347   -8.4997764   -234.04329    6.9684068   -9.1290334    197.76356    7.0717597   -19.319622  -0.63875326    7.0098865   -469.92946 
    7500    472.42344   -156.31366   -254.90068   -400.71682    310.95548    2.8438664    7.1857261   -19.168586   -234.01698    7.0959335   -19.333083    2.6860231     7.097566   -8.5244223   -234.01411    6.9909478   -9.1343351    197.78431    7.0705733    -19.33099  -0.63844944    7.0091747   -469.93022 
    7600    472.42344   -187.49006   -252.22509   -382.45226    310.75003    2.8805886    7.1907823   -19.213257   -234.01693    7.0947206   -19.310015    2.7074353    7.1055825   -8.6058863   -233.99857    7.0297081   -9.1558233    197.79328    7.0549234   -19.339682  -0.63814561    7.0084628   -469.93099 
    7700    472.42344   -163.35154    -266.1505   -378.08637       310.86    2.8981558    7.1948193   -19.216706   -234.02889     7.109742   -19.335152    2.7554105    7.1561344   -8.6060608    -234.0238    7.0744417   -9.1806627    197.78906    7.0589911   -19.313821  -0.63784178     7.007751   -469.93176 
    7800    472.42344   -161.38137   -317.29137   -332.62873     310.6889    2.9021617    7.1660317   -19.203938   -234.02772    7.0822486   -19.310693     2.742603    7.1092193   -8.6103934   -234.03124    7.0299593   -9.1500004    197.79653    7.0683163   -19.313663  -0.63753796    7.0070391   -469.93253 
    7900    472.42344   -177.74028   -245.09224   -344.27199    310.86881    2.9177599    7.1329095   -19.190804   -234.00719     7.090656   -19.316288    2.7968067    7.0343549   -8.6185449   -234.03466    7.0229822   -9.1519648    197.78777    7.0687495   -19.327917  -0.63723413    7.0063272    -469.9333 
    8000    472.42344   -159.77245   -231.64008   -333.96877    310.80303    2.9200716    7.1025976   -19.182786   -234.01694    7.1205266   -19.319231    2.7916404    7.0140183   -8.6537879   -234.04224    7.0354722   -9.1654352    197.79638      7.07797   -19.299134   -0.6369303    7.0056154   -469.93407 
    8100    472.42344   -95.583577   -256.26172   -301.77765    310.49512    2.9030214    7.0872888   -19.180278   -234.02434    7.1185133   -19.322812    2.7656689    7.0204477   -8.6564042   -234.04191    7.0299708   -9.2057622    197.79994    7.0449661   -19.301563  -0.63662648    7.0049035   -469.93484 
    8200    472.42344   -142.94871   -234.82751   -311.42861    311.25596    2.9199615    7.0486005   -19.166874   -234.03739    7.1151623   -19.332372    2.8083391    6.9931157    -8.616357   -234.03998     7.005337   -9.1918926    197.78591    7.0461277   -19.272192  -0.63632265    7.0041916   -469.93561 
    8300    472.42344   -116.79456   -228.02983   -307.61236    310.87741    2.9133432    7.0220634   -19.139713   -233.99894    7.1316555   -19.367236    2.7839223    6.9895997    -8.597049   -233.99146    7.0434957   -9.1985972    197.77982    7.0705373   -19.247214  -0.63601882    7.0034798   -469.93638 
    8400    472.42344   -113.83246   -240.56272   -326.33587    310.91241    2.9168882    7.0716693   -19.135074   -233.98039    7.1453013   -19.355088    2.8138089    7.0198939   -8.5641202   -233.98303    7.0631454   -9.1722887    197.79643     7.104853   -19.290673    -0.635715    7.0027679   -469.93715 
    8500    472.42344   -115.57259   -242.72254   -272.80791    310.64716    2.9071878    7.0818094    -19.15834   -233.96994      7.15207   -19.376791    2.7805468    7.0712072   -8.5423725   -233.96482    7.0725818   -9.1838391    197.79769    7.1694756   -19.292293  -0.63541117     7.002056   -469.93792 
    8600    472.42344   -110.70379   -244.56108   -329.07687    310.81363    2.8961955    7.0777662    -19.15311   -233.99191    7.1560561   -19.403265    2.7503141    7.0534198   -8.4934246    -233.9909    7.0863948   -9.1993559    197.78517    7.1738163    -19.26783  -0.63510734    7.0013442   -469.93869 
    8700    472.42344   -136.15287   -226.89813   -331.51764    311.03774    2.9023302    7.0712413   -19.128004   -233.99065    7.1955995   -19.426469     2.746197     7.020408    -8.495764    -233.9799    7.1262428   -9.2427398    197.79629    7.1514817   -19.306496  -0.63480351    7.0006323   -469.93946 
    8800    472.42344   -110.15716   -201.62904   -297.25238    311.09461    2.9114821    7.0919408   -19.144561   -233.98569    7.2332374   -19.453069     2.764521    7.0211739   -8.5398623   -233.99367    7.1570413   -9.2916771    197.82552    7.1322645   -19.288286  -0.63449969    6.9999204   -469.94023 
    8900    472.42344   -69.510631   -196.68443   -201.32256    310.85378     2.902914    7.1248635   -19.136335   -233.98102    7.2343146   -19.422607    2.7387805     7.046754   -8.5383247   -233.98931    7.1691901   -9.2795621    197.84004    7.1107058   -19.328743  -0.63419586    6.9992086     -469.941 
    9000    472.42344   -45.098471   -115.32719   -215.62532    310.73053    2.8855717    7.1025462   -19.117858   -233.96975    7.2424808   -19.423288    2.7209997    7.0248967   -8.4920496   -233.97028    7.2095634   -9.2673832    197.84532    7.1583746   -19.388026  -0.63389203    6.9984967   -469.94177 
    9100    472.42344   -72.010902   -136.98594   -206.79929    311.42324    2.8395263    7.0623667   -19.115722   -233.95824    7.2696562   -19.441215    2.6860357    6.9577208   -8.5408771   -233.97564    7.2394339   -9.2566632    197.84239    7.1927596   -19.378776  -0.63358821    6.9977848   -469.94254 
    9200    472.42344    3.6826536   -88.189607   -150.15854    310.93686    2.8577876    7.0497358   -19.121652    -233.9423    7.2798775    -19.45188    2.7339165    6.9537462   -8.5907989    -233.9353    7.2476621   -9.2791355     197.8563    7.2085044   -19.364949  -0.63328438     6.997073    -469.9433 
    9300    472.42344    12.149737    -51.00792   -106.30063     310.8354    2.8431631    7.0693263   -19.119216   -233.93143    7.2476723    -19.48657    2.7132494     6.981417   -8.5876337   -233.93317    7.2031964   -9.3264985    197.83033    7.2115462   -19.377417  -0.63298055    6.9963611   -469.94407 
    9400    472.42344    57.814967   -100.76092   -94.789257    310.76539    2.8452108    7.0830082   -19.111928   -233.90606    7.2155366   -19.523975    2.7098617    7.0366592    -8.538537   -233.90835    7.1588287   -9.3635919    197.83695    7.2063798    -19.40602  -0.63267673    6.9956492   -469.94484 
    9500    472.42344    92.451678   -48.894009   -80.157186    310.44386    2.8330706    7.1025496   -19.119168   -233.86685    7.1814055   -19.516978    2.6825299    7.0939768   -8.5168235   -233.86255    7.1237837   -9.3816214     197.8377    7.2192536   -19.436507   -0.6323729    6.9949374   -469.94561 
    9600    472.42344     26.08159   -58.899693   -73.104257    310.88899    2.8472271    7.0924447   -19.120424   -233.84508     7.124113   -19.521812    2.7156029    7.0875757   -8.5293902   -233.88738    7.0779737   -9.3764552    197.84352    7.2121328   -19.414946  -0.63206907    6.9942255   -469.94638 
    9700    472.42344      76.8184   -64.118501   -70.204805    310.99598    2.8263751    7.0841169   -19.134393    -233.8268    7.0900698   -19.536116    2.6954033    7.0555426   -8.5375118   -233.85041    7.0220727   -9.4121729    197.84135    7.1938227   -19.387959  -0.63176525    6.9935136   -469.94715 
    9800    472.42344    92.893646   -88.178801   -42.200955    311.20302    2.8625785     7.088626   -19.153918   -233.82312    7.1277738   -19.571871    2.7136344    7.0555264   -8.5817851   -233.84064    7.0258973   -9.4245736    197.85584    7.1714884   -19.378693  -0.63146142    6.9928018   -469.94792 
    9900    472.42344    103.87257   -15.192791    -10.59815    310.69635    2.8349024    7.0907629   -19.164999   -233.82295    7.1727395   -19.560962    2.6551738    7.0549063   -8.5960073   -233.80677    7.0212848    -9.406611    197.89666    7.1735276   -19.392509  -0.63115759    6.9920899   -469.94869 
   10000    472.42344    56.376419   -26.324958    2.2953319    311.07652    2.8488307    7.1111558   -19.181031   -233.85123    7.1842472   -19.526002    2.6993024    7.0571269   -8.6273523    -233.8113     7.057624    -9.347714    197.90916    7.1683907   -19.428349  -0.63085377    6.9913781   -469.94946 
   10100    472.42344    97.214597   -48.095806   -56.135713    311.33984    2.8420092    7.1389822   -19.198495   -233.86291    7.1533563   -19.542195    2.7244598    7.0655013   -8.6064474   -233.81038    7.0548923   -9.3525935    197.89915    7.1722927   -19.462903  -0.63054994    6.9906662   -469.95023 
   10200    472.42344    100.09356   -15.804033   -57.381549    311.07183    2.8357043    7.1723693   -19.182761   -233.87975    7.1321744   -19.576459    2.6847827     7.089635   -8.5904063    -233.8479    7.0588903   -9.4117283    197.91926    7.1242021   -19.478622  -0.63024611    6.9899543     -469.951 
   10300    472.42344    112.00157   -15.363699    7.3252215    310.85552    2.8215544    7.1912835   -19.196763   -233.88922    7.1174592   -19.581428    2.6896558    7.1212784    -8.631144    -233.8742    7.0516505   -9.4291769    197.91593    7.1641049   -19.475463  -0.62994228    6.9892425   -469.95177 
   10400    472.42344    113.11007    51.748224    85.892913    310.90289    2.8087595    7.1727425    -19.19305   -233.84997    7.1358511    -19.55581    2.6784076    7.1193443   -8.6278495   -233.84478      7.10522   -9.4122967    197.94057    7.2124016    -19.45281  -0.62963846    6.9885306   -469.95254 
   10500    472.42344    187.30948    35.346478    50.470463    311.09692     2.829721    7.1245946   -19.214976   -233.82291    7.1673916   -19.549716    2.6955424    7.0805638    -8.639377   -233.82678     7.125551     -9.40213    197.95696    7.2178376   -19.474362  -0.62933463    6.9878187   -469.95331 
   10600    472.42344    167.90123     24.08529    49.825451    311.28838    2.8411848    7.1289162   -19.229203   -233.83089    7.1704841   -19.545705    2.7221129    7.0750332   -8.6541321   -233.86239    7.1013454   -9.3805399       197.97    7.2079667   -19.497433   -0.6290308    6.9871069   -469.95408 
   10700    472.42344    189.22074    58.474624    128.09913    311.22441    2.8433896    7.1985683    -19.27826   -233.85297    7.1686622   -19.541824    2.7526552    7.1048086   -8.7206108   -233.86822    7.0934734     -9.34203    197.96482    7.2080506   -19.464565  -0.62872698     6.986395   -469.95485 
   10800    472.42344    206.03062     76.19755    141.51034    311.36264    2.8235526    7.2376873   -19.308848   -233.85181    7.1586266   -19.542607    2.7025297     7.167774   -8.7089521   -233.86062    7.0783864   -9.3505554    197.97358    7.2061838   -19.470718  -0.62842315    6.9856831   -469.95562 
   10900    472.42344    212.92841    98.527148    169.89016    310.96715    2.8529731    7.2424429   -19.340013   -233.85591    7.1350466   -19.589085    2.7376617    7.1664251   -8.7394387   -233.85805    7.0965772   -9.3987446    197.96459    7.2022991   -19.502756  -0.62811932    6.9849713   -469.95638 
   11000    472.42344    240.23881    94.272222    154.04288    311.07233    2.8292209    7.2710938   -19.362138   -233.84845    7.1234219    -19.62195    2.7119083    7.2167888   -8.7957403   -233.86804    7.0530742   -9.4012124    197.94572    7.1695904   -19.488372   -0.6278155    6.9842594   -469.95715 
   11100    472.42344    187.27688    143.53128    193.50463    311.21529    2.8526037    7.2984993   -19.345931   -233.86158     7.120846   -19.612933    2.7463195    7.2786197   -8.7672791   -233.87335    7.0715589   -9.4303126    197.94152    7.1505722   -19.512019  -0.62751167    6.9835475   -469.95792 
   11200    472.42344     264.0094    137.49794    206.33867    311.12877    2.8080884    7.3107123   -19.360328   -233.86496    7.1204359   -19.635266    2.6908576    7.3000467   -8.7932197   -233.86023    7.0786581   -9.4694794    197.93429    7.1966628   -19.551231  -0.62720784    6.9828357   -469.95869 
   11300    472.42344    262.70219     146.2643    231.17726    310.74943    2.7839317    7.3573757    -19.36359   -233.87844    7.0996157   -19.589481    2.6611849    7.3156644   -8.8155445   -233.87256    7.0246423   -9.4311442    197.92481    7.2127576   -19.540757  -0.62690402    6.9821238   -469.95946 
   11400    472.42344    273.38152    184.64976    290.58725    310.86475    2.7951212    7.3461864   -19.346328   -233.87375    7.0661648   -19.561377    2.6579282    7.3119875   -8.8024895   -233.87505    6.9960253   -9.3937986    197.93934    7.2109844    -19.54607  -0.62660019    6.9814119   -469.96023 
   11500    472.42344    273.12864    213.23557    270.63934    310.90915    2.7871533    7.3168247   -19.369447   -233.88994    7.0611682   -19.572603    2.6399395    7.2489209   -8.8306439   -233.90307    6.9630091    -9.381201    197.94361    7.2187579   -19.542844  -0.62629636    6.9807001     -469.961 
   11600    472.42344    287.56585    201.15989    234.70342    311.14512    2.7745942    7.2793227   -19.364514   -233.90551    7.0604672   -19.591345    2.6350014    7.2358405   -8.8305891    -233.9543    6.9579159   -9.4074109    197.94687    7.1933729   -19.526109  -0.62599254    6.9799882   -469.96177 
   11700    472.42344    276.23824    179.55839     265.8516    310.98155    2.7405229    7.2474298   -19.403166   -233.89839    7.0522993   -19.597242    2.5744831    7.2232817   -8.8780733   -233.97356    6.9576552   -9.4330119    197.92224    7.1997467   -19.522501  -0.62568871    6.9792763   -469.96254 
   11800    472.42344    291.11411    203.98757    249.01316    311.05766    2.7410421    7.2587337   -19.417205   -233.90389    7.0236693   -19.612397    2.5666008    7.2276986   -8.8752425   -233.97817    6.9718537   -9.4570396    197.91906     7.227956   -19.508255  -0.62538488    6.9785645   -469.96331 
   11900    472.42344    318.39404    190.40926    270.83896    311.35679    2.7604142    7.2439344   -19.405769   -233.90922    7.0091442   -19.596666    2.6101926    7.1915691   -8.8680992   -233.96009    6.9486182    -9.440499    197.88347    7.2245621    -19.51381  -0.62508105    6.9778526   -469.96408 
   12000    472.42344    329.11585    215.02325     300.4369    310.94701    2.7542176    7.2019893   -19.410335   -233.87692    7.0190919   -19.599335    2.6217922    7.1305009   -8.8802401   -233.90694    6.9663695   -9.4529512    197.86869    7.2167351   -19.497615  -0.62477723    6.9771407   -469.96485 
   12100    472.42344    313.71652    253.43474     328.3827    311.23431    2.7755699    7.1763236   -19.424606   -233.88461    7.0191977   -19.571173    2.6454669    7.0960194   -8.8815091   -233.89901    6.9763044    -9.424104    197.85971    7.2221444   -19.480268   -0.6244734    6.9764289   -469.96562 
   12200    472.42344    345.95543    227.80445    342.00952    310.97579    2.7898319    7.1901759   -19.424166   -233.88561    7.0018906   -19.565096    2.6880559    7.1351394   -8.8773794   -233.88324    6.9499874   -9.4156217    197.83239    7.2248096   -19.477115  -0.62416957     6.975717   -469.96639 
   12300    472.42344    375.17946    240.38009    324.19132    311.12499    2.8097815    7.1812322   -19.442064   -233.89532    6.9945438   -19.503098    2.6821594     7.123295   -8.8684286   -233.87984    6.9467476   -9.3421605    197.84554    7.2423275   -19.478278  -0.62386575    6.9750051   -469.96716 
   12400    472.42344    370.67158    301.25333    321.76179    310.54641    2.8271235    7.1874123   -19.435818   -233.89874    6.9902538   -19.488705    2.6726187    7.0975675   -8.8665619   -233.87892    6.9320766    -9.311979    197.84081    7.2289412   -19.473882  -0.62356192    6.9742933   -469.96793 
   12500    472.42344    329.68413    245.58313    321.15372    311.36646    2.8337983    7.1551632   -19.424876   -233.87941    6.9952767   -19.479055    2.6814318     7.104759   -8.8629444   -233.86176    6.9057316   -9.2902715    197.85873    7.2121035   -19.416478  -0.62325809    6.9735814   -469.96869 
   12600    472.42344    362.21042    294.80362     312.9355    311.13217     2.854657    7.1095484   -19.444937   -233.89219    6.9963937   -19.439495    2.7016984    7.0632253   -8.8860219   -233.87688    6.8894264   -9.2440964     197.8626    7.1788932   -19.394311  -0.62295427    6.9728696   -469.96946 
   12700    472.42344    389.44586    276.09678    341.41943    311.05432     2.878193    7.0963635   -19.466275   -233.89612    6.9762701   -19.438013    2.7147599    7.0655484   -8.9198888   -233.90823    6.8891424   -9.2437045     197.8868    7.1325961   -19.351013  -0.62265044    6.9721577   -469.97023 
   12800    472.42344    372.73264    266.19442    342.67479    310.89316    2.8521466      7.11552   -19.483196   -233.91184    6.9712275   -19.418623     2.693783    7.0957187   -8.9284907   -233.92213    6.8746466   -9.2482396    197.88601    7.0755534   -19.342314  -0.62234661    6.9714458     -469.971 
   12900    472.42344    368.55414      261.739    380.60203    310.91414    2.8344737    7.0997155   -19.496383   -233.90979    6.9537544   -19.400841    2.6869595    7.0439449   -8.9320439   -233.92986    6.8665564   -9.2501375    197.89862    7.0721353   -19.339309  -0.62204279     6.970734   -469.97177 
   13000    472.42344      350.562    220.83937    328.58132    311.49852    2.8029923    7.0708143    -19.48188   -233.87822    6.9719315   -19.387628     2.656367     7.006487    -8.899554   -233.89268    6.8820438   -9.2278076    197.87592    7.0612859   -19.330127  -0.62173896    6.9700221   -469.97254 
   13100    472.42344    364.07231    275.97608    365.16779    310.77313     2.828335    7.0469657    -19.49681   -233.86548    6.9955891   -19.419505    2.6756498    6.9542155   -8.9309291   -233.89239    6.8882134   -9.2292914    197.84864    7.0575729   -19.307754  -0.62143513    6.9693102   -469.97331 
   13200    472.42344    355.57618    248.90781    369.18435    311.45706    2.8321831     7.060346    -19.53995   -233.87565    6.9917258   -19.403794    2.6732932    6.9557666   -8.9761874   -233.88611    6.9126589   -9.2109291    197.81553    7.0530259   -19.337667  -0.62113131    6.9685984   -469.97408 
   13300    472.42344    380.91374    282.41873    417.62922    310.94865    2.8316454    7.0852569   -19.571589   -233.88484    7.0304835   -19.382108    2.6784842    6.9949761   -9.0264152   -233.88275    6.9535918   -9.2019028    197.80457    7.0817378   -19.351295  -0.62082748    6.9678865   -469.97485 
   13400    472.42344    361.77484    298.98017    384.16703    311.64946    2.8338835    7.0656672   -19.592548   -233.91918    7.0672149    -19.38004    2.7015296    7.0153009   -9.0764381   -233.90027    7.0376424   -9.2130925    197.80728    7.1194949   -19.347119  -0.62052365    6.9671746   -469.97562 
   13500    472.42344    411.93258    349.31369    432.03183    311.29421    2.8336417    7.0421621   -19.615768   -233.93548    7.0864693   -19.347436    2.6684747    7.0001271   -9.0877555    -233.8913    7.0600994   -9.2175242    197.80105    7.1571996   -19.339584  -0.62021982    6.9664628   -469.97639 
   13600    472.42344    420.06754    312.65895    460.35836    311.36068     2.830129    6.9934906   -19.614698   -233.95523    7.0728635   -19.320767    2.6479625    6.9400682   -9.0873365   -233.92663    7.0139993   -9.1752477    197.77951    7.1652945   -19.325115    -0.619916    6.9657509   -469.97716 
   13700    472.42344    416.24252    349.44355    471.81957    311.22036    2.8349377    6.9704464   -19.630848   -233.94992    7.0352533   -19.340026    2.6705071    6.8866952   -9.0785622   -233.95098    6.9432025   -9.1891244    197.79419     7.167631   -19.320846  -0.61961217     6.965039   -469.97793 
   13800    472.42344    402.56135    367.65809     431.3135     311.1084    2.8400133      6.95593   -19.628903    -233.9545    6.9951159   -19.334964    2.6508647    6.8996801   -9.0761393    -233.9756    6.9272312   -9.1798786    197.78141    7.1555604   -19.333247  -0.61930834    6.9643272    -469.9787 
   13900    472.42344    413.64866    327.82153    426.08518    311.19868    2.8507996    6.9851479   -19.618254    -233.9157    6.9363441   -19.329646    2.6963208     6.939663   -9.0621585   -233.95313    6.8473696   -9.1540074    197.76778    7.1397914   -19.336133  -0.61900452    6.9636153   -469.97947 
   14000    472.42344    430.65829    365.01638    422.33041    311.08741    2.8771319    6.9670857   -19.649059   -233.93742    6.8782881   -19.300101    2.7231492    6.9543874   -9.0697219   -233.95768    6.7896228   -9.1214553    197.77529    7.1324086   -19.329347  -0.61870069    6.9629034   -469.98024 
   14100    472.42344    425.67917    362.34269    482.29542    311.23545      2.88387    6.9361996   -19.627084   -233.90689    6.8844323   -19.320281    2.7353702    6.9129678   -9.0417851   -233.93237     6.799007    -9.156435    197.78012     7.149276   -19.363308  -0.61839686    6.9621916   -469.98101 
   14200    472.42344    455.50189    337.96914    506.47753    311.33298    2.8577748    6.9196413   -19.601406   -233.93465    6.9192232   -19.323927    2.6981711    6.8822071   -9.0232428   -233.96571    6.8299049   -9.1541354    197.79487    7.1279829   -19.359311  -0.61809304    6.9614797   -469.98177 
   14300    472.42344    463.85453    407.84524    509.11752    310.94476    2.8858452    6.9084207    -19.62601    -233.9678    6.9845806   -19.343983    2.7251336    6.8669412   -9.0616924   -234.00263    6.8912434   -9.1844574    197.82063    7.1202749   -19.361494  -0.61778921    6.9607678   -469.98254 
   14400    472.42344    479.03111    397.17063    512.83578    311.04415    2.9006513    6.8801208   -19.603048   -233.96489     7.037691   -19.354815    2.7446476     6.778622   -9.0306687   -233.98386    6.9544009   -9.1754783    197.79943    7.0899995   -19.382815  -0.61748538     6.960056   -469.98331 
   14500    472.42344    527.26261    381.59737    517.84936    311.38462    2.8903504    6.8965416   -19.612139   -233.95658    7.0576416   -19.370689    2.7459694    6.7880992   -9.0521773   -233.96458    6.9870971   -9.1881267     197.8292    7.0948533   -19.392749  -0.61718156    6.9593441   -469.98408 
   14600    472.42344    505.26002     380.3914    504.57727     311.3691    2.8745534    6.8875069   -19.654466   -233.93663     7.083322   -19.401883    2.7677981    6.7666762   -9.0962016   -233.95145    7.0152083   -9.2535658    197.81802    7.1180409    -19.39541  -0.61687773    6.9586322   -469.98485 
   14700    472.42344    528.62051    424.44742    556.43718    310.78167    2.8842805    6.8862449   -19.655962   -233.91516    7.1060331   -19.425162    2.7752984    6.7407012   -9.1054123   -233.92638    7.0411344   -9.2585335     197.8333    7.1675803   -19.414552   -0.6165739    6.9579204   -469.98562 
   14800    472.42344    521.49566    408.52101    562.28263    311.44022    2.9197986     6.888637   -19.695199   -233.91231    7.0805556   -19.461921     2.823416    6.7787943   -9.1452672   -233.92911    7.0312644   -9.2606469    197.84899    7.1469874   -19.463557  -0.61627008    6.9572085   -469.98639 
   14900    472.42344    529.27542    420.43109    568.17673    310.96871    2.9099678    6.9334273   -19.723701   -233.89896     7.073631   -19.457804    2.8305186    6.8495534   -9.1674926   -233.90477     7.006373   -9.2605643    197.87499    7.1189274    -19.45743  -0.61596625    6.9564966   -469.98716 
   15000    472.42344      521.811    410.69844    565.76785    311.06364    2.9090012    6.9804355    -19.69838    -233.9015    7.0696775   -19.491471    2.8131017    6.9404617    -9.153702   -233.88725      7.00727   -9.3070551    197.85193    7.1151382   -19.456331  -0.61566242    6.9557848   -469.98793 
   15100    472.42344    526.68131    429.00064    562.43099    311.59827    2.8832244    7.0221668   -19.706158   -233.87455    7.0819373   -19.534086    2.7705565    7.0313301   -9.1603876   -233.86681    7.0111925   -9.3966798      197.848    7.1339539   -19.436281  -0.61535859    6.9550729    -469.9887 
   15200    472.42344    538.63505    442.88449    551.69492    311.53602    2.8703671    7.0440221   -19.750835   -233.85439    7.0945373   -19.518385    2.7347907    7.0794388   -9.1995687   -233.84651    7.0520523    -9.383231     197.8245     7.133887   -19.438589  -0.61505477    6.9543611   -469.98947 
   15300    472.42344     528.4014      416.869    573.09833    310.90268    2.8631873    7.0907282   -19.775964   -233.83515    7.0794085   -19.535901    2.7218643    7.0754614   -9.2341379   -233.80901    7.0313705   -9.3837052    197.81659    7.1258909   -19.417332  -0.61475094    6.9536492   -469.99024 
   15400    472.42344    464.76476      385.256     472.0924    311.23338    2.8521478    7.0958205   -19.767581   -233.83593    7.0681374   -19.563183    2.7257486    7.0614934   -9.2037102    -233.8196    6.9944563   -9.4077855    197.83171    7.1361579   -19.441786  -0.61444711    6.9529373   -469.99101 
   15500    472.42344    460.58794    358.51426    444.46178    311.03864    2.8603838    7.1370405   -19.800412   -233.84054    7.0810273   -19.585345    2.7240884    7.1004039   -9.2343774   -233.81947    6.9898921   -9.4338989    197.84606    7.1301665   -19.453947  -0.61414329    6.9522255   -469.99178 
   15600    472.42344    421.06472    287.66967     397.2836    311.53075    2.8895135     7.168875    -19.77912    -233.8607      7.10797   -19.596686    2.7480813    7.0926577    -9.212101   -233.83869    7.0131289   -9.4400437    197.82817    7.1600248   -19.441763  -0.61383946    6.9515136   -469.99255 
   15700    472.42344    382.28269    300.45536    413.56042    311.05537    2.8515104    7.1636306   -19.767368   -233.84964     7.125829   -19.600546    2.6842256    7.0751149   -9.2155934   -233.83503    7.0161605   -9.4678075    197.80829    7.1514418   -19.422108  -0.61353563    6.9508017   -469.99332 
   15800    472.42344    432.23577    289.85799    368.80846    310.91956    2.8654133    7.1206051   -19.718415   -233.84106     7.126265   -19.586285    2.6939078    7.0437579   -9.1299878   -233.82345    7.0223787   -9.4479658    197.81239    7.1514131   -19.450355  -0.61323181    6.9500899   -469.99408 
   15900    472.42344    444.87321     309.9035    425.60887     310.8225    2.8537343    7.1029646   -19.723653    -233.8462    7.1281462   -19.584118    2.7011358    7.0468752   -9.1604662    -233.8515    7.0248812   -9.4381584    197.83277    7.1866543   -19.469011  -0.61292798     6.949378   -469.99485 
   16000    472.42344    448.32465    316.30438     418.2306    311.35674    2.8202051     7.146939   -19.742275   -233.85222    7.1391441   -19.589393     2.698119    7.0927424    -9.195406     -233.863    7.0772104   -9.4370246    197.84688     7.167963   -19.495335  -0.61262415    6.9486661   -469.99562 
   16100    472.42344    454.69959    331.62508    463.42628    310.94322    2.8362281    7.1539161   -19.762843   -233.88394    7.1311056   -19.586654    2.7101652    7.0698347   -9.2242427   -233.90506    7.0754437   -9.4267009    197.84355    7.1111702   -19.520752  -0.61232033    6.9479543   -469.99639 
   16200    472.42344    489.01444    311.65742    494.90904    310.86608    2.8149054    7.1181711   -19.784236   -233.88968    7.1007903   -19.593006    2.6695231      7.04419   -9.2406183   -233.87512    7.0432117   -9.4675618    197.86079    7.0971804   -19.503408   -0.6120165    6.9472424   -469.99716 
   16300    472.42344    459.91446    378.49951    450.22615    310.89511     2.799023    7.0887995   -19.807099   -233.86855    7.1263116   -19.575691    2.6524722    7.0086966   -9.2530242   -233.85764    7.0564805   -9.4345517    197.87058    7.0765959   -19.486896  -0.61171267    6.9465305   -469.99793 
   16400    472.42344    443.72353      345.297    443.61557    311.49649      2.78597    7.0543325   -19.787138   -233.87694     7.144068   -19.586847     2.634315    6.9843032   -9.2492491   -233.87263    7.0911088   -9.4012607    197.85961    7.0866366   -19.462821  -0.61140885    6.9458187    -469.9987 
   16500    472.42344    475.30048    341.75832    467.35516    311.47091    2.8010176    7.0429395   -19.815933   -233.91869    7.1622687   -19.591991    2.6491332    7.0238042   -9.2567117   -233.91955    7.1156806   -9.3726838    197.87898    7.1231318   -19.467777  -0.61110502    6.9451068   -469.99947 
   16600    472.42344    460.39608     372.8138    448.55511    311.36323    2.8019419    7.0707364   -19.822221   -233.90102    7.1799606   -19.585264    2.6342017    7.0316529   -9.2873244   -233.92494    7.0901889    -9.396273    197.87488    7.1306459   -19.480119  -0.61080119    6.9443949   -470.00024 
   16700    472.42344     493.8116    334.16386    494.43426    311.06392     2.813577    7.0753911   -19.799952   -233.88351    7.1809515   -19.602737    2.6666904     7.013617    -9.284021   -233.89518     7.090159   -9.4217685    197.89185    7.1079623   -19.510472  -0.61049736    6.9436831   -470.00101 
   16800    472.42344    478.32246    386.23894    486.15711    311.14924    2.8242291    7.0994657   -19.774057   -233.87846    7.1659959   -19.590125    2.6620845    7.0381387   -9.2407848   -233.87949    7.0872042   -9.4124481    197.89126    7.1287174   -19.516968  -0.61019354    6.9429712   -470.00178 
   16900    472.42344    492.13906     347.1052    480.11891    311.05582    2.8264524    7.1229879   -19.758655   -233.87925    7.1273817   -19.583277    2.6803677    7.0469369   -9.2202103   -233.86824    7.0527117   -9.4140128    197.84107    7.1542368   -19.514196  -0.60988971    6.9422593   -470.00255 
   17000    472.42344    496.08888    350.20001    487.05029    310.89257    2.8078942    7.0708539   -19.709861   -233.92192    7.1384637   -19.590412    2.6708323    7.0259022   -9.1688829   -233.93267    7.0663109     -9.42394    197.86336     7.158717   -19.477929  -0.60958588    6.9415475   -470.00332 
   17100    472.42344    433.06272    332.52481    494.48875    310.77617    2.8072966    7.0391159   -19.684893   -233.91613    7.1758661   -19.578981    2.7025231    6.9954384   -9.1577235   -233.91239    7.0958644   -9.4498165     197.8421    7.1409537   -19.459439  -0.60928206    6.9408356   -470.00409 
   17200    472.42344    420.32452    351.98499    412.78377    311.06342    2.7771936    7.0354495   -19.683346   -233.90158    7.2035273   -19.588183    2.6630237    6.9801747   -9.1323786   -233.87432    7.1310052   -9.4231323    197.82093    7.1392396   -19.504097  -0.60897823    6.9401237   -470.00486 
   17300    472.42344    437.36721    304.45046    403.74721    311.29305    2.7801192    7.0272108   -19.725451   -233.92768    7.1910942   -19.555064    2.6737821    6.9888535   -9.1735463    -233.9228    7.1212347   -9.3784814    197.81844     7.152097   -19.522141   -0.6086744    6.9394119   -470.00563 
   17400    472.42344     421.7765    317.91041    400.18408    311.01961    2.8012596    7.0152307   -19.672515   -233.92919    7.1965592   -19.544724    2.6735823    6.9669216   -9.1291417   -233.91586     7.132656   -9.3600986    197.76619    7.1835594   -19.519174  -0.60837058       6.9387    -470.0064 
   17500    472.42344     373.5112    302.79666     397.4643    310.82383    2.8195338    7.0183802    -19.66403   -233.94207    7.1830396   -19.524122    2.6679496    6.9632006    -9.145091   -233.95019    7.1268129   -9.3850017    197.75806    7.1713006   -19.523579  -0.60806675    6.9379882   -470.00716 
   17600    472.42344      419.536    278.17479    374.25108    310.71888    2.8291336    7.0079987    -19.63365   -233.93768     7.160226   -19.560365    2.6552745    6.9248348   -9.1156539   -233.94735    7.1025015   -9.4168136    197.76757    7.1763598   -19.504829  -0.60776292    6.9372763   -470.00793 
   17700    472.42344     388.4264    276.03554    384.80396    311.06945    2.8354254    7.0320066   -19.616304   -233.92048    7.1640327   -19.535198    2.6517725    6.9340904   -9.0974141   -233.95731    7.1146295   -9.3871359    197.76167    7.1967868    -19.49151   -0.6074591    6.9365644    -470.0087 
   17800    472.42344    409.90358    279.66245    380.49095    311.13477    2.8251174    7.0542462   -19.603563   -233.95102    7.2009544   -19.523957    2.6690738    6.9437067   -9.0726284   -233.99721    7.1388326   -9.3778841     197.7631    7.2058499    -19.46815  -0.60715527    6.9358526   -470.00947 
   17900    472.42344    395.89316     288.5659    378.44587    310.96452    2.8362902    7.0950077   -19.625699   -233.98535    7.2215316   -19.515011    2.6876382    6.9934069   -9.0916787   -234.03416     7.150678   -9.3749422    197.74405    7.1880396   -19.487611  -0.60685144    6.9351407   -470.01024 
   18000    472.42344    359.18845     264.0893    406.09553    311.18802    2.8204541     7.138969   -19.613687   -234.00009    7.2190117   -19.500808    2.6679369      7.07054   -9.0891642    -234.0295    7.1453168   -9.3758409    197.75186    7.1408308   -19.521238  -0.60654762    6.9344288   -470.01101 
   18100    472.42344    403.91005     287.7354    390.24053    310.74961    2.8418057    7.1477808   -19.579393   -234.01242    7.2103922   -19.468983    2.7275441    7.0996589   -9.0477875   -234.03329    7.1475665   -9.3249883     197.7536    7.0971756   -19.514115  -0.60624379     6.933717   -470.01178 
   18200    472.42344    389.76381    289.54018    364.72676    311.01248    2.8519394    7.1590209   -19.572718   -234.01692    7.1860259   -19.495784    2.7248133     7.140169   -9.0364855   -234.02708    7.1402679     -9.29812    197.72294    7.1030764   -19.508699  -0.60593996    6.9330051   -470.01255 
   18300    472.42344    370.05086    220.39828    340.93272    311.11561    2.8794995    7.1841624   -19.570078   -234.05238    7.1907247   -19.497642    2.7648209    7.1707716   -9.0224562   -234.04998    7.1248327   -9.2757013    197.70242    7.1333066   -19.516818  -0.60563613    6.9322932   -470.01332 
   18400    472.42344    341.20601    275.80456    323.86494    311.10661    2.8637641    7.1941207   -19.545053   -234.02879    7.2106635    -19.49576    2.7630624    7.1779556   -9.0312169   -234.04393    7.1375752   -9.3003753      197.704    7.1400716   -19.517482  -0.60533231    6.9315814   -470.01409 
   18500    472.42344    338.77177    230.18521    312.25633    311.49758     2.858009    7.1491127    -19.55268   -234.03934     7.209843   -19.503118     2.760063    7.1123899   -9.0653308   -234.05275    7.1094179   -9.3395486    197.71162     7.140207   -19.556625  -0.60502848    6.9308695   -470.01486 
   18600    472.42344    328.06571    261.01217    364.75077    311.05896    2.8497161    7.1123737   -19.528419   -234.03587    7.1960846   -19.492221    2.7267131    7.0629818   -9.0247572   -234.06336    7.0898471   -9.3136777    197.74712    7.1653266   -19.531082  -0.60472465    6.9301576   -470.01563 
   18700    472.42344    321.95795    260.06057    327.27987    311.04914    2.8440775    7.0847309   -19.551731   -234.03852    7.1997204   -19.497689    2.7238631    7.0122692   -9.0481665   -234.07578    7.1062217   -9.3151648    197.75328    7.1465148   -19.490882  -0.60442083    6.9294458    -470.0164 
   18800    472.42344    342.60789    248.26074    320.31534     311.0877    2.8363253    7.0912541    -19.50755   -234.05217    7.1902276   -19.504737    2.7219558    7.0086649    -8.986591   -234.08357    7.1234445   -9.3705216    197.77611    7.1308887    -19.48323    -0.604117    6.9287339   -470.01717 
   18900    472.42344    333.49634    197.82355    323.09932    311.37446    2.8311973    7.0448766    -19.48071   -234.04658    7.2021952    -19.50768     2.711379     6.964589   -8.9532979   -234.07679     7.145802   -9.3762583    197.75253    7.1336028   -19.473936  -0.60381317     6.928022   -470.01794 
   19000    472.42344    350.74537    208.29915      348.629    310.65438    2.8472262    7.0440718   -19.468315   -234.01783    7.1815309   -19.524951    2.7018078    6.9882892    -8.941926   -234.04419     7.098964   -9.3572414    197.76274    7.1453609   -19.498653  -0.60350935    6.9273102   -470.01871 
   19100    472.42344    360.31039    216.13568    317.85011    310.84578    2.8175499    7.0401936   -19.471218   -233.99974    7.1628835   -19.518181    2.6936023    6.9829002   -8.9392241   -233.99849    7.0848315   -9.3526764    197.76675    7.1843407    -19.46298  -0.60320552    6.9265983   -470.01948 
   19200    472.42344    320.60809    183.62562    287.30825    311.17006    2.8107227    7.0135066   -19.454596    -233.9885    7.1752229   -19.522884    2.6685774    6.9816758   -8.9284266   -234.00153    7.1124397   -9.3596968    197.71839    7.1543159   -19.459278  -0.60290169    6.9258864   -470.02024 
   19300    472.42344    291.60313    196.94286    271.38119    311.37423    2.7729354    6.9952484   -19.443901   -234.01011    7.1300615   -19.488542     2.588266    6.9433415   -8.9103977   -234.04078    7.0719301   -9.2895597    197.73893    7.1833024   -19.448494  -0.60259787    6.9251746   -470.02101 
   19400    472.42344    340.82928     251.9118    304.34673    310.68487     2.752273    6.9800423   -19.465773   -234.00644    7.0673603   -19.479089    2.5845973    6.9049723    -8.942341   -233.99982    7.0062158   -9.2669677    197.72219    7.1670616   -19.446687  -0.60229404    6.9244627   -470.02178 
   19500    472.42344    305.33188    217.35334    269.62643    310.93074      2.75111    6.9704666   -19.458748    -233.9863     7.064687   -19.473832    2.5855517    6.8862703   -8.9472808   -233.98551    6.9734366   -9.2761869    197.73801     7.172733   -19.437417  -0.60199021    6.9237508   -470.02255 
   19600    472.42344    301.79713    182.18013    228.77909    311.36472    2.7572005    6.9578455    -19.46773   -233.99662    7.0862369   -19.470598    2.6152574    6.8742969   -8.9284412   -233.98035    6.9954549   -9.2953172     197.7424    7.1629076   -19.429096  -0.60168639     6.923039   -470.02332 
   19700    472.42344    275.03213    160.34336    221.46916    311.07939    2.7363506    7.0070729   -19.457941   -233.99097    7.1070786   -19.488688    2.5907141    6.9168125   -8.9152452   -233.98303    7.0250737    -9.345115    197.75763    7.1697926   -19.449003  -0.60138256    6.9223271   -470.02409 
   19800    472.42344    238.68079    134.69025    225.43687    310.99262    2.7189959    7.0276733   -19.432444   -233.98997    7.1108048   -19.494952    2.5830143    6.9830781   -8.8840918     -233.971    7.0309396   -9.3292693    197.74205    7.1702121   -19.420948  -0.60107873    6.9216152   -470.02486 
   19900    472.42344    233.71809    106.79421    165.32483    311.13817    2.6972722    7.0462214   -19.449656   -233.99809    7.0784509   -19.511113    2.5561614    7.0002806   -8.9279566   -233.96987    7.0066593   -9.3448378    197.76694    7.1722905   -19.421306   -0.6007749    6.9209034   -470.02563 
   20000    472.42344    222.98781    95.522975    147.37758    310.95792    2.7078731    7.0472529   -19.450887   -233.97651    7.0394193   -19.496635     2.550905    7.0042204   -8.9192069   -233.95929    6.9587822    -9.321094     197.7799    7.1459336    -19.41779  -0.60047108    6.9201915    -470.0264 
   20100    472.42344    163.10038    96.955568    99.905616    310.70758    2.7043474     7.045341   -19.451353   -233.96402    7.0459944   -19.519009    2.5694725    6.9656617   -8.9256892   -233.94401    6.9684749   -9.3491784    197.78069    7.1195756   -19.417554  -0.60016725    6.9194797   -470.02717 
   20200    472.42344    193.56596    78.560089     88.38408    310.72528    2.6991976    7.0207211   -19.447872   -233.97841    7.0436849   -19.516677    2.5856031    6.9428452   -8.9229353   -233.97527    6.9972475   -9.3467771    197.79857     7.131663   -19.419575  -0.59986342    6.9187678   -470.02794 
   20300    472.42344    145.49937    75.692057    37.754925    310.67756    2.7119684    7.0277285   -19.466744   -233.95229    7.0305246   -19.528768    2.5732211    6.9299723   -8.9625584   -233.95325     6.987571    -9.355417    197.77984    7.1155092   -19.443798   -0.5995596    6.9180559   -470.02871 
   20400    472.42344    145.61442    18.701026     38.28811    311.16409    2.7290314    7.0472834   -19.480563   -233.97296    7.0132206   -19.542908    2.5792296    6.9699935   -8.9384955   -233.98535    6.9530954   -9.3620235    197.80427    7.1486213   -19.416311  -0.59925577    6.9173441   -470.02948 
   20500    472.42344    89.433892    32.057925    20.338582    311.27198    2.7252874    7.0556276   -19.452904   -233.97861    7.0122913   -19.525408    2.5856333    7.0144456   -8.9186031   -233.99627    6.9422948   -9.3609437    197.78627    7.1754662   -19.399794  -0.59895194    6.9166322   -470.03025 
   20600    472.42344    117.70816    23.668306   -12.701495    311.14629    2.7385921    7.0863247   -19.465288   -233.97279    7.0548791   -19.527483    2.6020074    7.0383231   -8.9400506   -233.96601    6.9952759   -9.3934063    197.75858    7.1905549   -19.400193  -0.59864812    6.9159203   -470.03102 
   20700    472.42344    130.47542   -2.2022247    26.045957    310.91299    2.7445343    7.1047823   -19.470033   -233.92762    7.0636878   -19.549762    2.6187864    7.0463335   -8.9666217   -233.92613    6.9921919   -9.4014076    197.77974    7.1369953    -19.42727  -0.59834429    6.9152085   -470.03179 
   20800    472.42344    126.90538   -4.7195753    21.359198    310.87178    2.7436155    7.1569908   -19.488216   -233.89868    7.0639004   -19.542528    2.6109138    7.0812946   -8.9651624   -233.90904    7.0002385   -9.3891165    197.76873    7.0881612   -19.455688  -0.59804046    6.9144966   -470.03255 
   20900    472.42344    84.789902    46.803328    18.420026    311.03039    2.7494315    7.1753116    -19.49515   -233.92235    7.0741695     -19.5388    2.6266397    7.0802989    -8.980741   -233.94543    6.9973165   -9.3712083    197.76842    7.0863763   -19.445911  -0.59773664    6.9137847   -470.03332 
   21000    472.42344    122.23729     27.66257   -1.1151648    310.84727    2.7121854    7.1865915   -19.481371   -233.92922    7.0542047   -19.535986     2.599347    7.1277219   -8.9711081    -233.9399    6.9956096   -9.3690088    197.74848    7.0752323   -19.453196  -0.59743281    6.9130729   -470.03409 
   21100    472.42344    102.04438   -45.097029   -19.616136    311.11143    2.7039031    7.2030186    -19.49457   -233.92843    7.0454097   -19.498424    2.5623138     7.159386   -8.9863486   -233.94414    6.9869529   -9.3421941    197.78166    7.0470897   -19.449152  -0.59712898     6.912361   -470.03486 
   21200    472.42344    28.740745   -41.328092   -28.855201    311.33109     2.702651    7.2025495   -19.475533   -233.94326    7.0213996   -19.509025    2.5273445    7.1798538   -8.9527965   -233.96179    6.9665846   -9.3362036    197.78717    7.0283306     -19.4291  -0.59682515    6.9116491   -470.03563 
   21300    472.42344    102.93549   -65.038477   -91.646952    310.76214    2.6974937    7.1939873   -19.479891   -233.96311    7.0079335   -19.502437    2.5633195    7.1647996   -8.9525719   -233.98785    6.9613304   -9.3212397    197.76436    7.0422745   -19.404545  -0.59652133    6.9109373    -470.0364 
   21400    472.42344    26.573816   -65.539504   -107.81617    310.81479    2.7224094    7.1471983   -19.481693   -233.98852    6.9810568   -19.501013    2.5730054    7.1142505   -8.9264307    -234.0064    6.9341557   -9.3427982    197.75375    7.0491425   -19.404507   -0.5962175    6.9102254   -470.03717 
   21500    472.42344    23.874583   -96.348029   -126.03763    311.08762    2.7211743    7.1457398   -19.467834   -233.97257    6.9596807   -19.483115    2.5898596    7.1039839   -8.8840481   -233.98352    6.8973935   -9.3181836    197.76523    7.0535059   -19.408131  -0.59591367    6.9095135   -470.03794 
   21600    472.42344    31.654334   -91.286813   -171.35047    310.59835    2.7060347    7.1376154   -19.464462   -233.99805    6.9355714   -19.433438     2.583903     7.089001   -8.9171405   -234.00534    6.8563278   -9.2491814    197.74907    7.0472947   -19.380968  -0.59560985    6.9088017   -470.03871 
   21700    472.42344    16.566102   -107.39072   -179.37672    310.63428    2.6978797    7.1496098   -19.450863   -234.00382    6.8980637   -19.426711    2.5759495    7.0744123   -8.9171413   -233.98647    6.7899089   -9.2799737    197.73631    7.0370088   -19.350443  -0.59530602    6.9080898   -470.03948 
   21800    472.42344   -54.475814    -101.7682   -201.62662    310.84931     2.714015    7.1994227    -19.48579   -234.01114    6.9100954   -19.430939    2.6082377    7.1130632   -8.9596578   -234.00153    6.7680287   -9.2596459    197.71463    7.0331046   -19.329428  -0.59500219    6.9073779   -470.04025 
   21900    472.42344    11.131129   -153.90305   -200.54811    310.58361    2.6895816    7.2072008   -19.513535    -234.0053     6.880377   -19.403389    2.5652015    7.1328969    -8.993952   -234.01737    6.7310979   -9.2372582    197.72406     7.056006   -19.341851  -0.59469837    6.9066661   -470.04102 
   22000    472.42344    10.862825   -171.31311    -210.9608     310.6115    2.6741506    7.2278806   -19.537924    -234.0195    6.8528223   -19.335371    2.5383329    7.1852855   -9.0363869   -234.04445    6.7349907   -9.1737586    197.71919    7.1027608   -19.299903  -0.59439454    6.9059542   -470.04179 
   22100    472.42344   -38.595548   -169.81045    -226.1595     310.9305    2.6839236     7.202362   -19.540956   -234.04911    6.8757462   -19.325617     2.547905    7.1665461   -9.0364785   -234.09021    6.7820124   -9.1581165    197.68184    7.1207604   -19.269529  -0.59409071    6.9052423   -470.04256 
   22200    472.42344    -55.84612   -180.38234   -248.38506    311.01378    2.6417527    7.1948364   -19.501156   -234.07696    6.9211088   -19.297804    2.5163294    7.1550287   -9.0023498   -234.11169    6.8289348   -9.1209535    197.66468    7.1300144   -19.269305  -0.59378689    6.9045305   -470.04333 
   22300    472.42344   -57.921139     -167.057   -216.94928    310.85933    2.6367196    7.1949467   -19.505386   -234.06742    6.9463299   -19.295672    2.5156873    7.1686508   -9.0070384   -234.06998    6.8705378   -9.1072242    197.69494    7.1248104   -19.239973  -0.59348306    6.9038186    -470.0441 
   22400    472.42344   -44.752351    -183.9288   -233.00446    310.72711     2.631271    7.1700611   -19.491355   -234.04564    6.9497854   -19.302582     2.487347    7.1259717    -8.990541   -234.07193     6.873481    -9.119833    197.68542     7.127948   -19.242521  -0.59317923    6.9031067   -470.04487 
   22500    472.42344   -86.685777   -176.03552    -260.7785    311.00334    2.6173688    7.1609224   -19.495151   -234.05652    6.9782178    -19.28815    2.4774876    7.0938594   -9.0059003   -234.05529    6.9225317   -9.1035689    197.67767    7.0868448   -19.242565  -0.59287541    6.9023949   -470.04563 
   22600    472.42344   -57.885627    -216.1871    -260.5129    311.03941    2.6287121    7.1431564   -19.487874   -234.06675    7.0300147   -19.299432    2.4715007    7.0833536   -8.9967203   -234.08265    7.0126616   -9.1139816     197.6654    7.0126812   -19.237455  -0.59257158     6.901683    -470.0464 
   22700    472.42344   -117.16779   -256.77537   -264.07284    311.15126    2.6461143     7.154369   -19.462467   -234.04379    7.0654501   -19.256141    2.4938943    7.1244364    -8.956997   -234.05438    7.0341226   -9.0963143    197.70088    7.0070871   -19.204742  -0.59226775    6.9009712   -470.04717 
   22800    472.42344   -89.870056   -219.96732   -274.27837    310.90153    2.6325257    7.1477516   -19.446839   -234.06438     7.093856   -19.227409    2.4925584    7.1219844   -8.9062851   -234.06446    7.0465723   -9.0707519    197.68737    7.0318809   -19.169282  -0.59196392    6.9002593   -470.04794 
   22900    472.42344   -142.93254   -248.18999   -262.62728    311.00119     2.646354    7.1382153   -19.457944   -234.06089    7.1111072   -19.205294    2.4919417    7.0399713   -8.9104558    -234.0679    7.0607866   -9.0638137    197.66718    6.9844973   -19.158808   -0.5916601    6.8995474   -470.04871 
   23000    472.42344   -125.33806   -225.40773   -287.14024     310.8811     2.637908    7.1173065   -19.449151   -234.07505    7.1207604    -19.17805    2.4874279    7.0159023   -8.9214164   -234.07244    7.0796723   -9.0203391    197.65875    6.9237764   -19.143136  -0.59135627    6.8988356   -470.04948 
   23100    472.42344   -121.55673   -261.03476   -301.64619    310.89039    2.6595774    7.1298354   -19.435433   -234.07526    7.1521798   -19.178677    2.5345573    7.0558061   -8.8990759   -234.06545    7.1099129   -9.0127865    197.67644    6.9063073   -19.132552  -0.59105244    6.8981237   -470.05025 
   23200    472.42344   -155.38206    -249.2206   -295.19124    311.03698    2.6997046    7.0959197   -19.421974   -234.06717    7.1513237   -19.190592    2.5625076    7.0463329   -8.8741707   -234.02165     7.089784   -9.0171233    197.67508    6.9145061   -19.136574  -0.59074862    6.8974118   -470.05102 
   23300    472.42344   -122.04295   -253.56984   -331.71822    310.62679    2.7039012    7.0628173   -19.434239   -234.06954    7.1514037   -19.166818    2.5639912    7.0136547   -8.8880893    -234.0498    7.0883366   -8.9955228    197.66992     6.933256   -19.133054  -0.59044479       6.8967   -470.05179 
   23400    472.42344   -173.94948   -283.56346   -348.27278    311.24738    2.7089184    7.1019454    -19.43189   -234.07942    7.1091318    -19.17748    2.5516064    7.0499759   -8.8966844   -234.09376    7.0139516   -8.9991806    197.66706    6.9829448   -19.113768  -0.59014096    6.8959881   -470.05256 
   23500    472.42344   -152.53635   -275.30408   -341.96457    310.96422    2.7234236    7.1087409   -19.452787   -234.08291    7.0752215   -19.160213    2.5797016    7.0381016    -8.929889   -234.08592    6.9767432   -8.9830433    197.65854    6.9974762   -19.108208  -0.58983714    6.8952762   -470.05333 
   23600    472.42344    -172.1619    -241.7999    -336.8864    310.56908    2.7279673    7.1116345   -19.455011   -234.07889    7.0832423   -19.138629    2.5826537    7.0359012   -8.9541826   -234.09739    7.0106184   -8.9828999     197.6538    7.0043729   -19.115953  -0.58953331    6.8945644    -470.0541 
   23700    472.42344   -152.21342   -280.85488   -390.59083    310.87583    2.7369936    7.1371446   -19.425526   -234.05282    7.0725874   -19.133379    2.5836623    7.0612211   -8.9519452   -234.06408    7.0186918   -8.9891658    197.65379    7.0012858   -19.088126  -0.58922948    6.8938525   -470.05487 
   23800    472.42344   -167.92118    -299.3295   -348.80156    311.17191    2.7430173    7.1124635    -19.42161   -234.04576    7.0013799   -19.111425    2.5733653    7.0694792   -8.9150353   -234.04804    6.9457466   -8.9365182    197.64117    7.0203406    -19.07368  -0.58892566    6.8931406   -470.05564 
[...]
  999000    472.42344   -15.476527     -62.6035   -128.22101      310.785    5.7725419   0.29745426   -27.214307   -231.01335     0.152411   -26.860638    5.6028816   0.20473521   -16.712868    -231.0278   0.15081493   -16.728411    200.69421   0.20484576   -26.810217     2.373994 -0.048970124    -477.5588 
  999100    472.42344    3.1062641   -100.99945    -146.1444    310.99387    5.7698526   0.26472799   -27.207621   -230.99319   0.15414986   -26.868651    5.6331489   0.19348215   -16.724922   -230.99753   0.13119436   -16.720524    200.70472   0.19427195   -26.846971    2.3742979 -0.049681989   -477.55957 
  999200    472.42344   -4.2981744   -95.956207   -133.05679    310.75479    5.7491871   0.25741208   -27.189934   -230.96971   0.13869615    -26.86566     5.595621   0.22259017   -16.726441   -230.97573   0.11477562   -16.698298    200.67217   0.23105516   -26.850609    2.3746017 -0.050393854   -477.56034 
  999300    472.42344   -21.388989   -96.120549   -114.43057    310.87845    5.7550649   0.23589556   -27.191087   -230.95501   0.10111947   -26.873595     5.590657   0.18809691   -16.724673   -230.96322  0.034403184   -16.715784     200.6755   0.27464446   -26.843519    2.3749055  -0.05110572   -477.56111 
  999400    472.42344   -14.357878   -77.326067   -106.33933      310.609    5.7506389   0.20188214   -27.194533   -230.97842  0.093645579   -26.839953    5.6030456   0.14613332   -16.718224   -230.98935 -0.018335817   -16.679157    200.69338   0.28730832   -26.818519    2.3752094 -0.051817585   -477.56188 
  999500    472.42344   -26.986278   -101.04132   -127.11957    311.02275    5.7448779   0.17552423    -27.22719   -230.98589  0.073081359   -26.846185    5.6021242   0.13112851    -16.74313   -231.00462 -0.024889957   -16.683206     200.6845   0.32197156   -26.817355    2.3755132  -0.05252945   -477.56265 
  999600    472.42344   -7.5035743   -137.76741   -144.54845    310.83184    5.7333789   0.18345776   -27.223904    -230.9974  0.082491013   -26.856952    5.5766332    0.1480884   -16.745071   -231.02277 0.0046215117   -16.684644    200.67376   0.32937709   -26.796616     2.375817 -0.053241316   -477.56342 
  999700    472.42344    5.1042823   -82.214762    -131.2982    310.77992    5.7402274   0.17657073   -27.229431   -230.98422    0.1132601   -26.892625    5.6167269    0.1449554   -16.754042   -230.99885  0.029545099   -16.724367    200.68157   0.32376386   -26.804722    2.3761208 -0.053953181   -477.56419 
  999800    472.42344   -27.374821   -156.72132   -184.14299    311.40674    5.7411099   0.18601126   -27.232009   -230.99416  0.098933577   -26.889562    5.6241254   0.13894355   -16.736573   -231.00742  0.014388197   -16.721379    200.72669   0.34636302   -26.801145    2.3764247 -0.054665046   -477.56495 
  999900    472.42344   -68.058013   -145.84246   -169.13499    311.06127    5.7405032   0.22093548    -27.22894   -231.02568  0.077422127   -26.904236    5.6097039   0.14790234   -16.747641   -231.04385 -0.030518413   -16.747868    200.74005   0.36987457   -26.813714    2.3767285 -0.055376912   -477.56572 
 1000000    472.42344   -60.699355    -178.5489   -188.47624    311.19896    5.7330869   0.21411384   -27.233176   -231.02698   0.10224781   -26.907113    5.5792349   0.12557172   -16.740363   -231.05663 -0.0080144235   -16.783244    200.74301   0.37851301   -26.849703    2.3770323 -0.056088777   -477.56649 
 1000100    472.42344   -83.395379   -156.31296   -216.82654    310.76111    5.7278899   0.20236851   -27.238216   -231.03736    0.1052864   -26.914062    5.5974495   0.13400621   -16.741778   -231.05574 -0.0028320718   -16.791633    200.74671   0.33930551   -26.867452    2.3773361 -0.056800642   -477.56726 
 1000200    472.42344   -72.516087    -198.1676   -227.49358      311.169    5.7363142   0.19955455   -27.233408   -231.01911  0.089805361    -26.92077    5.6034419   0.14638146   -16.722641   -231.02714 -0.0081138631     -16.8157    200.76196   0.30797288    -26.87666      2.37764 -0.057512508   -477.56803 
 1000300    472.42344   -103.88211   -137.39078   -227.93414    310.44682    5.7452199   0.20562138   -27.242747   -230.99728  0.059514694   -26.908337    5.6213626   0.15848585    -16.73544   -230.99428 0.0097591934   -16.782061    200.74546   0.29280366   -26.869538    2.3779438 -0.058224373    -477.5688 
 1000400    472.42344   -81.062045   -201.22346   -298.02089    310.94267    5.7538823   0.20676864   -27.255382   -231.00296  0.074491381   -26.901996    5.6569526   0.14737468   -16.777422   -230.96834  0.056649595   -16.764706    200.74448   0.30875579    -26.86565    2.3782476 -0.058936238   -477.56957 
 1000500    472.42344   -91.600619    -191.9786   -285.07155    310.71221    5.7575612   0.22433218   -27.270453   -230.96682  0.099262392   -26.899585    5.6466116   0.14742277   -16.810578   -230.95367  0.079347362   -16.761386    200.72981   0.25502256   -26.858102    2.3785515 -0.059648104   -477.57034 
 1000600    472.42344   -112.93132   -178.06188   -283.40366    310.94711    5.7584633   0.22204818   -27.294907   -230.95819  0.091333602   -26.889418    5.6450445   0.12999124   -16.827635   -230.93994  0.062221435   -16.715386    200.72072   0.21727195   -26.862734    2.3788553 -0.060359969   -477.57111 
 1000700    472.42344   -122.15791   -204.98998   -276.44684    310.78439    5.7815423   0.20118471   -27.316574   -230.96333   0.10252033   -26.871807     5.651503   0.12451866   -16.824511   -230.94951  0.052878518   -16.667476    200.74669   0.17730907   -26.848459    2.3791591 -0.061071834   -477.57188 
 1000800    472.42344   -180.43684   -248.92464   -367.70471    311.23179    5.7795057   0.20138022   -27.305787    -230.9457   0.08834211   -26.880755    5.6383601     0.150689   -16.798877   -230.94212  0.055860505   -16.710415    200.72475   0.15717247    -26.83926    2.3794629   -0.0617837   -477.57265 
 1000900    472.42344   -154.08711   -235.54939   -357.93062    310.99357    5.7759589   0.19148646   -27.274628   -230.95438  0.098938521   -26.899178    5.6398139   0.17378076   -16.772796   -230.93504  0.058911918   -16.721014     200.7381   0.13179747   -26.842065    2.3797668 -0.062495565   -477.57342 
 1001000    472.42344    -167.7954   -257.36038   -389.85761    310.96806    5.7604973   0.20974414   -27.269309   -230.96425  0.093855475   -26.918122    5.6173878   0.18723104   -16.770868   -230.98243  0.034298912   -16.753946    200.73669   0.12000752   -26.835787    2.3800706  -0.06320743   -477.57419 
 1001100    472.42344   -170.93594   -233.97747   -346.07829    310.76968    5.7595831   0.20203761   -27.238328    -230.9474  0.095716629    -26.93381    5.6289268   0.17571061    -16.74373    -230.9672 0.0057478853   -16.791835    200.74177   0.11893974   -26.851869    2.3803744 -0.063919296   -477.57496 
 1001200    472.42344   -189.72869    -271.6776    -416.5401    311.27321    5.7688751   0.13446802   -27.250159   -230.98037   0.11647588   -26.954146    5.6470057   0.10049104   -16.760507   -231.00064 -0.0028280989   -16.825367    200.76143   0.11520203   -26.841808    2.3806782 -0.064631161   -477.57573 
 1001300    472.42344   -134.64867   -265.63404   -377.61105    310.86237    5.7830473  0.066782131   -27.231672   -230.96659   0.12487912   -26.931922    5.6522649 -0.0010979612    -16.75504   -230.97801  0.022075928   -16.826517    200.77288   0.11903688   -26.869895    2.3809821 -0.065343026    -477.5765 
 1001400    472.42344   -138.24514    -239.1014   -373.68554    310.72712    5.7751184  0.088431705   -27.238551   -230.97001   0.13235498   -26.932121    5.6367258 -0.0036252766   -16.727429   -230.97515  0.077987317   -16.843898    200.74605   0.11275552   -26.861022    2.3812859 -0.066054892   -477.57727 
 1001500    472.42344   -158.81069   -224.42383   -375.35918    310.80376    5.7584303  0.088332385   -27.236883    -230.9537   0.14548518    -26.94108    5.6409665 -0.023002908   -16.721118   -230.93474  0.067205961   -16.835722    200.75226  0.093479151   -26.852741    2.3815897 -0.066766757   -477.57803 
 1001600    472.42344    -173.5654   -229.37287   -371.27658    310.41096    5.7691345  0.083614818   -27.242844   -230.92882   0.13106446   -26.920467     5.633763 -0.012772426   -16.726904   -230.94041  0.049381946   -16.804329    200.73795  0.097908879   -26.886758    2.3818935 -0.067478622    -477.5788 
 1001700    472.42344   -177.08737   -270.52275   -406.75513    310.76559    5.7706563  0.078714167   -27.224165   -230.92487  0.072706532   -26.915752    5.6387174  0.012302286    -16.71479   -230.94124 -0.012356919    -16.76843     200.7439   0.11137383   -26.912411    2.3821974 -0.068190488   -477.57957 
 1001800    472.42344   -212.36156   -259.31201   -414.92049    310.93428    5.7999219  0.072649976   -27.229952   -230.90238  0.030332198   -26.881236    5.6747317  0.015900161   -16.757816   -230.90483 -0.059428658    -16.72762    200.75029   0.11193069   -26.911298    2.3825012 -0.068902353   -477.58034 
 1001900    472.42344   -155.51735   -288.42652   -399.95265    310.68501    5.8117606  0.060385818    -27.18589   -230.90684  0.016579912   -26.859737    5.6769909 -0.0078566879   -16.718427   -230.91073 -0.041002901   -16.672493    200.71664   0.12176167   -26.900766     2.382805 -0.069614218   -477.58111 
 1002000    472.42344   -175.25322   -243.25609   -369.16032    310.53924    5.8052372  0.076235761   -27.161017   -230.92524 -0.0033847779   -26.871508    5.6640463 0.0034194593   -16.690627   -230.94023 -0.047838088   -16.686517     200.7087   0.10796542   -26.867599    2.3831089 -0.070326084   -477.58188 
 1002100    472.42344   -166.12615    -286.1386   -386.81588    311.04428    5.8147848  0.090663437    -27.12789    -230.9353 -0.029660057   -26.846874    5.6672782  0.048881669    -16.65491   -230.94969 -0.093380723   -16.678872    200.73534  0.084888442    -26.87729    2.3834127 -0.071037949   -477.58265 
 1002200    472.42344   -200.62608   -249.08497   -422.22012    311.15316     5.794978   0.13101281   -27.151027   -230.94888 -0.038973286   -26.859765    5.6197874   0.10088164   -16.679392   -230.96165  -0.11583014   -16.720599     200.7453   0.11370827   -26.864325    2.3837165 -0.071749814   -477.58342 
 1002300    472.42344    -187.6519   -292.64993     -382.637    310.78207    5.7845548   0.15388897   -27.153283   -230.96828 -0.027091499   -26.892576    5.6199663   0.12629618   -16.665865   -230.98915  -0.10271134   -16.733913    200.74949   0.11823089   -26.861472    2.3840203  -0.07246168   -477.58419 
 1002400    472.42344   -223.08295   -267.60105   -391.92777    310.79691    5.7728457   0.11164012   -27.141374   -230.97084 -0.013412761   -26.935669    5.6151354  0.070930449   -16.635823    -230.9926 -0.082672214   -16.778885    200.76233  0.098391016   -26.847523    2.3843242 -0.073173545   -477.58496 
 1002500    472.42344   -160.64109   -349.20527   -456.62609    311.21429    5.7754298  0.054785402    -27.13882   -230.93341  0.016986368   -26.968669    5.6208654 0.0069219056   -16.638294   -230.93254 -0.067169354     -16.8178    200.74796  0.096503951   -26.839722     2.384628  -0.07388541   -477.58573 
 1002600    472.42344   -193.05319   -282.63073   -411.66175    311.03133    5.7603196   0.01743718   -27.123452   -230.94507  0.011380242   -26.971045    5.6099502 -0.031510896   -16.613899   -230.93368 -0.075751487   -16.820284    200.75139   0.10808638   -26.804208    2.3849318 -0.074597276    -477.5865 
 1002700    472.42344   -186.77791     -270.795   -413.11431    310.71902     5.746062  0.031269669   -27.142311   -230.95005 0.0060432669   -26.973293    5.6297362 -0.020296948   -16.626562    -230.9678 -0.083605086   -16.843775    200.76596    0.1198824   -26.825907    2.3852356 -0.075309141   -477.58727 
 1002800    472.42344   -199.56866   -296.08585   -419.64836    310.81281    5.7409366  0.051693373   -27.126106   -230.95983  -0.00851749   -26.959616    5.6218789 0.0040151993    -16.61604   -230.98405 -0.084106232   -16.821872    200.75868   0.12246939   -26.807768    2.3855395 -0.076021006   -477.58804 
 1002900    472.42344   -228.67576   -272.03398    -429.4971    310.96219    5.7592074  0.045443719   -27.136264   -230.95915 -0.0062573076   -26.943386    5.6144447 -0.020865237   -16.646499   -230.97111 -0.073219286   -16.811733    200.77919   0.10709416   -26.769721    2.3858433 -0.076732872   -477.58881 
 1003000    472.42344   -217.93497     -286.903   -436.61059    310.86197    5.7579818  0.030878504   -27.136079   -230.96263  0.012184969   -26.960742    5.6222921 -0.045725503   -16.651308   -230.98227 -0.046716685   -16.845522    200.75581  0.078270418   -26.790679    2.3861471 -0.077444737   -477.58958 
 1003100    472.42344   -207.84961    -294.0819   -430.32953    310.79058    5.7607361  0.040193736   -27.142992   -230.97265  0.047363493    -26.92458    5.6210463 -0.013633376   -16.629966   -230.98828 -0.0075840148    -16.80061    200.73032  0.082029627   -26.814376    2.3864509 -0.078156602   -477.59034 
 1003200    472.42344    -198.4885   -236.32541   -389.22838    310.70057    5.7598535  0.056435056   -27.146781   -230.97593  0.060572399   -26.933137    5.6085902 0.0031173979   -16.647328   -230.99736 -0.0022735014   -16.792817    200.73432  0.081276096   -26.867081    2.3867548 -0.078868468   -477.59111 
 1003300    472.42344   -155.54219   -251.37385   -364.94796    310.12654    5.7582653  0.088685566   -27.151759   -230.95717  0.075159953   -26.883418    5.6109711 0.0058762982    -16.67628   -230.98005 -0.010596485   -16.737743    200.73565  0.082442038   -26.886786    2.3870586 -0.079580333   -477.59188 
 1003400    472.42344    -182.1723   -272.57685   -439.93436    310.84281    5.7545557  0.075264487   -27.153119   -230.95731   0.10156516   -26.864252    5.6028723 -0.0037568319   -16.700351    -230.9752 0.00016791845   -16.720497    200.73786  0.066703408   -26.875146    2.3873624 -0.080292198   -477.59265 
 1003500    472.42344   -241.98489   -326.17991   -427.13687    310.97629    5.7563147  0.052117165   -27.128459   -230.95955    0.1150517   -26.837794    5.6166598 0.0045116032   -16.659436   -230.97133 0.0068900891   -16.673592    200.74888  0.064485843   -26.888525    2.3876663 -0.081004064   -477.59342 
 1003600    472.42344   -195.39144   -309.40815   -448.23761     311.0548    5.7864235  0.034330766   -27.140503   -230.95251   0.10572717   -26.801064    5.6389207  -0.01947942    -16.66215    -230.9506 -0.012263208   -16.623084    200.74668  0.053620052   -26.872028    2.3879701 -0.081715929   -477.59419 
 1003700    472.42344    -188.2348   -294.54851   -415.64568    310.61547    5.7902844  0.024630807   -27.139198   -230.94934   0.11335447   -26.805558    5.6210742 -0.034492305   -16.647692   -230.95602 0.00038122259   -16.601715    200.75186  0.069315965   -26.888941    2.3882739 -0.082427794   -477.59496 
 1003800    472.42344   -224.93268   -317.65189   -467.90886    310.83721     5.805828   0.02793088   -27.145458   -230.94377   0.11324483   -26.791323    5.6529718 -0.022186384   -16.654338   -230.95312 0.0063667162   -16.615931    200.74248    0.1077432   -26.840018    2.3885777  -0.08313966   -477.59573 
 1003900    472.42344   -226.03379   -302.49474   -452.32183    310.67911    5.8282335  0.054228775   -27.149512   -230.96837   0.10095352   -26.779741    5.7081258 -0.0099212487   -16.629092   -230.95714  0.034477114   -16.623894    200.76348    0.1144372    -26.80833    2.3888816 -0.083851525    -477.5965 
 1004000    472.42344   -214.84811   -339.24097   -426.11464    310.48051    5.8135691  0.060830302   -27.157144   -230.95783  0.084009276   -26.772633    5.6962406  0.017981384   -16.642704   -230.94844  0.056308455    -16.61977    200.77857  0.091433784     -26.7738    2.3891854  -0.08456339   -477.59727 
 1004100    472.42344   -205.01861   -317.93855   -409.58154    310.69706    5.8471146  0.050903923   -27.134653   -230.98191   0.13525798   -26.777667    5.7287737  0.019442174   -16.660527   -230.97068   0.11314123   -16.615493    200.79871  0.092375535   -26.773685    2.3894892 -0.085275256   -477.59804 
 1004200    472.42344   -217.57813   -292.63858   -438.32656    310.95715    5.8156241  0.070519008   -27.139129   -230.97919   0.14147186   -26.756519    5.6947046  0.040738208   -16.652843   -230.97466   0.11182945   -16.612702    200.79054  0.082940366    -26.76868     2.389793 -0.085987121   -477.59881 
 1004300    472.42344   -201.88752   -282.68019   -393.36503    310.98521    5.8131249  0.071667511   -27.149418   -230.97472   0.16240648   -26.759075     5.684484  0.042065762   -16.649001   -230.98479   0.13106485    -16.59741     200.7952   0.12113879   -26.769793    2.3900969 -0.086698986   -477.59958 
 1004400    472.42344   -153.31439   -262.96878   -377.43202    310.60085    5.8307481  0.027911493   -27.137247   -230.97619   0.17107856      -26.775    5.6891846 -0.017738154   -16.643456   -230.97638   0.15547169   -16.619317    200.77783    0.1405983   -26.766657    2.3904007 -0.087410852   -477.60035 
 1004500    472.42344   -147.23669   -291.60017   -398.68627    310.60256    5.8219243 0.0089254891   -27.130805   -230.97835   0.19009023   -26.794856    5.6839605 -0.070152448   -16.638455   -230.98374   0.13989441   -16.606025    200.76161   0.11629319   -26.761195    2.3907045 -0.088122717   -477.60112 
 1004600    472.42344   -152.90486    -270.7179   -372.61247    310.44493    5.7976631  0.028547859   -27.128963   -231.00856   0.19640208   -26.788456     5.662082 -0.022230841   -16.609684   -231.00701   0.13370947   -16.604805    200.80033   0.14929178   -26.779038    2.3910084 -0.088834582   -477.60189 
 1004700    472.42344    -158.5013   -279.38436   -418.02382    311.38715    5.8055565  0.063205274   -27.131708   -230.99644   0.18791098   -26.790934     5.661577 -0.00057976389   -16.609774   -230.99962   0.12178301   -16.618132    200.78844   0.14742341   -26.808558    2.3913122 -0.089546448   -477.60266 
 1004800    472.42344   -178.21999   -259.26478   -337.88513    311.09144    5.8197315  0.075926301   -27.135398   -231.00156   0.13893051   -26.812508    5.6867603  0.029952785   -16.611458    -231.0128  0.046265961   -16.643933    200.77026   0.11031231   -26.846167     2.391616 -0.090258313   -477.60342 
 1004900    472.42344   -136.39968   -264.17618   -359.38959    311.27263    5.8398529  0.067204383   -27.150299   -230.97393  0.084063048   -26.843514    5.6921324  0.019406203   -16.646467   -230.96446 -0.027027804    -16.69085    200.77392   0.16752461    -26.84829    2.3919198 -0.090970178   -477.60419 
 1005000    472.42344   -128.73492   -236.88774   -318.53851    310.85788    5.8322509  0.065560578   -27.152242   -230.93895  0.054175998   -26.911887    5.6758149   -0.0024842   -16.689241   -230.91841 -0.065556763   -16.789914    200.70905   0.17098897   -26.850593    2.3922237 -0.091682044   -477.60496 
Loop time of 8733.72 on 512 procs for 1000000 steps with 575184 atoms

Performance: 19.785 ns/day, 1.213 hours/ns, 114.499 timesteps/s
99.9% CPU use with 512 MPI tasks x no OpenMP threads

MPI task timing breakdown:
Section |  min time  |  avg time  |  max time  |%varavg| %total
---------------------------------------------------------------
Pair    | 2655.7     | 5699.3     | 6032.5     | 901.7 | 65.26
Neigh   | 0.046123   | 1.5642     | 1.8058     |  27.6 |  0.02
Comm    | 653.12     | 938.75     | 3040.9     |1532.0 | 10.75
Output  | 6.0849     | 6.2316     | 6.8504     |   1.2 |  0.07
Modify  | 42.736     | 66.328     | 74.217     |  68.6 |  0.76
Other   |            | 2022       |            |       | 23.15

Nlocal:    1123.41 ave 1242 max 138 min
Histogram: 16 16 0 0 0 0 0 0 0 480
Nghost:    3962.65 ave 4278 max 1124 min
Histogram: 32 0 0 0 0 0 0 0 16 464
Neighs:    79156.8 ave 88996 max 9664 min
Histogram: 32 0 0 0 0 0 0 0 0 480

Total # of neighbors = 40528273
Ave neighs/atom = 70.4614
Neighbor list builds = 397
Dangerous builds = 0



Total wall time: 2:26:29
