LAMMPS data file via write_data, version 28 Jun 2014, timestep = 20000

1200 atoms
1 atom types

-1.2114843444702046e+01 1.2114843444702046e+01 xlo xhi
-8.0765622964682020e+00 8.0765622964682020e+00 ylo yhi
-8.8727981044159151e+01 2.0305609958159657e+01 zlo zhi

Masses

1 26.982

Atoms # atomic

2 1 -1.0121482544970993e+01 -6.2299335832077922e+00 -4.8457187183531119e+01 0 0 0
8 1 -8.0675028395995145e+00 -6.0846955348574285e+00 -4.6420093026575415e+01 0 0 0
15 1 -1.0177859093180562e+01 -4.0631284053713088e+00 -4.6366599140602354e+01 0 0 0
17 1 -8.1808127202806862e+00 -4.1192901632547958e+00 -4.8337642357495263e+01 0 0 0
640 1 -1.2656960263832520e-01 6.0695326825626257e+00 -4.6676668904826229e+01 0 0 0
19 1 -6.0317759020035417e+00 -4.0946401221282098e+00 -4.6378661007659574e+01 0 0 0
6 1 -5.9791515562602848e+00 -6.2197880967293040e+00 -4.8435417922899020e+01 0 0 0
7 1 -6.1695824793030223e+00 7.9781575234728290e+00 -4.6481786460730163e+01 0 -1 0
10 1 -2.2144289744639929e+00 -6.0267586931366806e+00 -4.8470551066502573e+01 0 0 0
12 1 -4.0253043257836980e+00 -6.1190612358098164e+00 -4.6496099027965712e+01 0 0 0
21 1 -4.1018652939780784e+00 -4.0835011305823308e+00 -4.8537248610288721e+01 0 0 0
23 1 -2.0685498166683254e+00 -4.1645453134938002e+00 -4.6505757919147122e+01 0 0 0
9 1 -4.1763776810651905e+00 7.9723137366240611e+00 -4.8488016636615413e+01 0 -1 0
604 1 -1.1532930851571033e-01 -6.0625747033600570e+00 -4.6763956236908072e+01 0 0 0
613 1 -2.0437605165702727e-02 -4.1031396881040099e+00 -4.8545347013579722e+01 0 0 0
14 1 -1.0234308979828308e+01 -2.0121738553120312e+00 -4.8555966827821123e+01 0 0 0
20 1 -8.0665930643394717e+00 -2.0601693110111308e+00 -4.6481099351899502e+01 0 0 0
26 1 -1.0028009513051053e+01 1.9172498752496998e+00 -4.8511177957585694e+01 0 0 0
27 1 -1.0130182257927201e+01 -4.7929227364617074e-03 -4.6503393676261787e+01 0 0 0
29 1 -8.2382533539911584e+00 -2.6852384688526709e-01 -4.8494775517182553e+01 0 0 0
32 1 -8.1261922117329686e+00 1.8175877168429937e+00 -4.6577733540094322e+01 0 0 0
18 1 -6.1007881916752167e+00 -2.0914389673407503e+00 -4.8628516161433268e+01 0 0 0
30 1 -6.3120422399827998e+00 1.9395051279376074e+00 -4.8690924045120646e+01 0 0 0
31 1 -6.1454396756195928e+00 -5.6833189288196654e-04 -4.6646816265692252e+01 0 0 0
22 1 -2.0879434672364225e+00 -2.1340708719995138e+00 -4.8462869351647633e+01 0 0 0
24 1 -4.0343407923390995e+00 -2.1034397987820683e+00 -4.6584275095327442e+01 0 0 0
33 1 -4.2855227557100237e+00 -6.2745179936218629e-02 -4.8805478569762087e+01 0 0 0
34 1 -2.1994789168849747e+00 1.8489045416675776e+00 -4.8678344601366412e+01 0 0 0
35 1 -2.0657545862936835e+00 -1.1011656307934285e-01 -4.6517519621945468e+01 0 0 0
36 1 -4.1168987417886429e+00 1.8219733179000828e+00 -4.6742522877716617e+01 0 0 0
625 1 -8.8106589042088693e-02 -1.4607767782753711e-01 -4.8711976252416719e+01 0 0 0
637 1 -1.7604832803925513e-01 3.8999882272265296e+00 -4.8528732773498398e+01 0 0 0
628 1 -1.0977942159387820e-01 1.8919580705806884e+00 -4.6882382133769546e+01 0 0 0
3 1 -1.0042626340553422e+01 8.0362535011089431e+00 -4.6551272596179388e+01 0 -1 0
5 1 -8.2388118112683006e+00 7.8165606466593127e+00 -4.8711565212824610e+01 0 -1 0
43 1 -6.1387217127055340e+00 3.8960833812084625e+00 -4.6613883401570007e+01 0 0 0
38 1 -1.0371675224454357e+01 6.1075124307741397e+00 -4.8490942436650435e+01 0 0 0
39 1 -1.0062593749217232e+01 3.8783629995357685e+00 -4.6445978768023636e+01 0 0 0
41 1 -8.2092154975423739e+00 4.2209085779649573e+00 -4.8504160395063330e+01 0 0 0
44 1 -8.1644593491346065e+00 6.0596613866953568e+00 -4.6504968189020609e+01 0 0 0
42 1 -5.9795716133128529e+00 6.0812522449876392e+00 -4.8697321326235887e+01 0 0 0
11 1 -2.0568433433276989e+00 8.0056804726803037e+00 -4.6628446528829052e+01 0 -1 0
45 1 -4.0439679394356478e+00 3.9083600656115354e+00 -4.8636248396182729e+01 0 0 0
47 1 -2.0919428672055127e+00 3.9606909845633753e+00 -4.6676586129650602e+01 0 0 0
48 1 -4.1038890930430032e+00 5.9555739453961376e+00 -4.6517033620568874e+01 0 0 0
46 1 -2.0023217562604989e+00 6.1152474086629898e+00 -4.8716155602045632e+01 0 0 0
25 1 -1.2014033551017615e+01 2.3071400521231952e-02 -4.8598364077990027e+01 0 0 0
28 1 -1.2097701345790432e+01 1.9383945991062856e+00 -4.6578098171203841e+01 0 0 0
50 1 -1.0294596080315646e+01 -6.0459486899248756e+00 -4.4435752835944101e+01 0 0 0
56 1 -8.3073570408862221e+00 -5.8545803414171358e+00 -4.2447658335115456e+01 0 0 0
63 1 -1.0312490524830574e+01 -4.0442921729927450e+00 -4.2335071139812712e+01 0 0 0
65 1 -8.0399676424773681e+00 -4.0812632720923387e+00 -4.4542246675957095e+01 0 0 0
55 1 -6.2035344737838471e+00 7.9736904785885994e+00 -4.2519407362383767e+01 0 -1 0
67 1 -6.0706795360563657e+00 -4.1099125949307593e+00 -4.2288310387759857e+01 0 0 0
54 1 -5.9763855423714389e+00 -6.1045446288326195e+00 -4.4481337024857595e+01 0 0 0
58 1 -2.0389570287413310e+00 -6.1029251941854961e+00 -4.4594735131913090e+01 0 0 0
60 1 -4.0838918514777829e+00 -6.2274163663229105e+00 -4.2497956233396444e+01 0 0 0
69 1 -4.0240433428441076e+00 -3.9977245487601483e+00 -4.4383862459396454e+01 0 0 0
71 1 -1.8270731422915074e+00 -4.2185431390935690e+00 -4.2581534439858430e+01 0 0 0
251 1 -1.9571935998400114e+00 -8.0552962049467798e+00 -2.5991909237547961e+01 0 0 0
62 1 -1.0063063713509088e+01 -2.0496693927689291e+00 -4.4510250085876002e+01 0 0 0
68 1 -8.2781899779800838e+00 -2.1522153367322305e+00 -4.2306445880868502e+01 0 0 0
74 1 -1.0170144081049560e+01 1.9370582081385568e+00 -4.4633576153951928e+01 0 0 0
75 1 -1.0330180847216242e+01 -4.3786373007066760e-02 -4.2484262226703912e+01 0 0 0
77 1 -8.2042456614687786e+00 3.9330919966111934e-03 -4.4321443339720631e+01 0 0 0
80 1 -8.2962146192929112e+00 2.1152664546742290e+00 -4.2560294273071548e+01 0 0 0
880 1 -1.5585172393708840e-01 6.0121066629004778e+00 -2.6242545942743845e+01 0 0 0
66 1 -6.1442436574098132e+00 -2.1155967852031141e+00 -4.4424926781140861e+01 0 0 0
79 1 -6.1429158315670707e+00 -1.5705889230264058e-01 -4.2363718040068399e+01 0 0 0
78 1 -6.0200762191901056e+00 2.0809116402021419e+00 -4.4593202930356874e+01 0 0 0
70 1 -1.9992235279639139e+00 -1.9526217495102767e+00 -4.4492339227446564e+01 0 0 0
72 1 -3.9149675203761856e+00 -2.1363373387250775e+00 -4.2421434010210149e+01 0 0 0
81 1 -4.2248842635154764e+00 -1.5988113710143825e-01 -4.4508633218150372e+01 0 0 0
82 1 -2.2931108764733263e+00 1.8502932592504640e+00 -4.4575462023273630e+01 0 0 0
83 1 -2.1087814762103401e+00 -2.1061018823255336e-02 -4.2557762026702122e+01 0 0 0
84 1 -4.1325087116885140e+00 1.8806030711354162e+00 -4.2412261804321602e+01 0 0 0
664 1 -6.1399437498911955e-02 -1.8885265706273893e+00 -4.2505786378415650e+01 0 0 0
51 1 -1.0402201892699416e+01 8.0394720465526071e+00 -4.2370679058576755e+01 0 -1 0
53 1 -8.2368207497303363e+00 7.9970207070512949e+00 -4.4305158390918216e+01 0 -1 0
86 1 -1.0185827503707712e+01 6.0490721558181413e+00 -4.4498887705316093e+01 0 0 0
87 1 -1.0188895685732840e+01 4.0774611213727896e+00 -4.2602181828312048e+01 0 0 0
89 1 -8.0807768320096045e+00 3.9564042647949775e+00 -4.4458464087974924e+01 0 0 0
92 1 -7.9581726713365963e+00 5.9239765107273739e+00 -4.2494578680540840e+01 0 0 0
287 1 -2.0425234594228305e+00 4.0843564321254595e+00 -2.6086782064528158e+01 0 0 0
91 1 -6.1694301873720381e+00 3.7091914830691994e+00 -4.2473261777872658e+01 0 0 0
90 1 -6.1106888847690835e+00 5.9215883215445411e+00 -4.4617208944124144e+01 0 0 0
288 1 -4.0997316981135032e+00 5.9105807631844387e+00 -2.6189393882274256e+01 0 0 0
57 1 -4.0419380178327549e+00 7.9464006912303002e+00 -4.4606961282339668e+01 0 -1 0
59 1 -2.1181686339363699e+00 8.0283301354778942e+00 -4.2419148325722340e+01 0 -1 0
93 1 -4.1405299288153969e+00 4.0627960471265592e+00 -4.4595297110601564e+01 0 0 0
94 1 -1.9711123230070293e+00 6.1098441074540260e+00 -4.4437349727293395e+01 0 0 0
95 1 -2.1476341442265325e+00 3.8264521010290222e+00 -4.2733429563016308e+01 0 0 0
96 1 -4.1320040751541995e+00 6.1760547512541049e+00 -4.2385896773185628e+01 0 0 0
311 1 -3.9860184830063212e+00 4.2063825166379658e+00 -2.4139427866933811e+01 0 0 0
98 1 -1.0291872283815264e+01 -5.9838799952939139e+00 -4.0451615506341007e+01 0 0 0
104 1 -8.0955459207141534e+00 -5.8250213513940636e+00 -3.8399700266206622e+01 0 0 0
111 1 -1.0181594661908148e+01 -3.9060043254990537e+00 -3.8329570093951119e+01 0 0 0
113 1 -8.2817701468065472e+00 -3.9380257295269430e+00 -4.0301337085912820e+01 0 0 0
102 1 -6.2526305827077282e+00 -6.0777839531235838e+00 -4.0545990306066905e+01 0 0 0
109 1 -1.2062375480053214e+01 -3.7669864210838777e+00 -4.0374149497896390e+01 0 0 0
312 1 -1.9852057148027638e+00 6.2132355901697505e+00 -2.4067023064069648e+01 0 0 0
247 1 -5.9403178976024282e+00 8.0664282861260972e+00 -2.6113864042676234e+01 0 -1 0
161 1 -7.9266474735767760e+00 -3.8832461019735205e+00 -3.6276951834906285e+01 0 0 0
115 1 -6.0299078250134253e+00 -3.8374245159545231e+00 -3.8497084576834681e+01 0 0 0
150 1 -6.1040179936962202e+00 -5.9491001349848878e+00 -3.6421139615956939e+01 0 0 0
106 1 -1.8866907475287382e+00 -5.8940993647880848e+00 -4.0436828557412738e+01 0 0 0
108 1 -4.1406238631975141e+00 -6.0079005933407075e+00 -3.8494929643356059e+01 0 0 0
117 1 -4.0010891049257253e+00 -4.0971761805627978e+00 -4.0340765394534287e+01 0 0 0
119 1 -2.0138701167673352e+00 -4.0971578344699360e+00 -3.8315696234252464e+01 0 0 0
107 1 -2.1860316535039264e+00 -8.0153796836084528e+00 -3.8426050988718693e+01 0 0 0
283 1 -6.1276013957610385e+00 3.9846816538662799e+00 -2.6250628542489391e+01 0 0 0
110 1 -1.0187663848153150e+01 -1.9373769907331979e+00 -4.0464699289153977e+01 0 0 0
116 1 -8.1810710780262372e+00 -1.9307184368676229e+00 -3.8372691566748692e+01 0 0 0
122 1 -1.0260062550571552e+01 2.1403213834100381e+00 -4.0651764632308904e+01 0 0 0
123 1 -1.0261420151972329e+01 1.4318399600610848e-01 -3.8505669305169150e+01 0 0 0
125 1 -8.1890165167261788e+00 6.0013599510954301e-02 -4.0225894013826696e+01 0 0 0
128 1 -8.2620259751486103e+00 2.0891239791011649e+00 -3.8322854290005729e+01 0 0 0
114 1 -6.2460607165239361e+00 -2.0724902315062073e+00 -4.0412621652708452e+01 0 0 0
279 1 -1.0122670027384100e+01 3.8843675681303087e+00 -2.6294467855645205e+01 0 0 0
127 1 -6.0397741780819958e+00 1.1761329652037887e-01 -3.8269604995223141e+01 0 0 0
174 1 -6.1881018921655704e+00 2.0376375351370277e+00 -3.6369445573599904e+01 0 0 0
162 1 -6.1059293644157764e+00 -2.0444043769897702e+00 -3.6373011367366324e+01 0 0 0
126 1 -6.3077119862269058e+00 1.9924647121954340e+00 -4.0519224173988974e+01 0 0 0
118 1 -1.9803076750873561e+00 -2.0201801841542637e+00 -4.0321673188222185e+01 0 0 0
120 1 -4.0669783840087472e+00 -1.9488448047722233e+00 -3.8289897240490944e+01 0 0 0
129 1 -4.1967866771462567e+00 -5.5452644529291266e-02 -4.0449105429201985e+01 0 0 0
130 1 -2.1049341702136863e+00 1.9812731340394547e+00 -4.0597032474715284e+01 0 0 0
131 1 -2.2165955310590708e+00 2.5559977603002826e-01 -3.8454584071140985e+01 0 0 0
132 1 -4.1873001789292177e+00 2.0640216055704439e+00 -3.8611492564807129e+01 0 0 0
284 1 -7.9851268516724820e+00 6.0709504308404849e+00 -2.6285792904758633e+01 0 0 0
166 1 -1.9991664204261799e+00 -1.7947890457688622e+00 -3.6235303785752620e+01 0 0 0
712 1 -1.4740146576334053e-03 -1.9952866028207648e+00 -3.8293490657308183e+01 0 0 0
721 1 -2.1142977259381587e-01 -7.9845094193014998e-02 -4.0373427533458518e+01 0 0 0
99 1 -1.0243889146464030e+01 -7.9590812182756494e+00 -3.8431546066791178e+01 0 0 0
101 1 -8.2457037411968130e+00 -7.9676875886822529e+00 -4.0533495589386249e+01 0 0 0
134 1 -1.0056390282227529e+01 6.0070879813493976e+00 -4.0553822697559966e+01 0 0 0
135 1 -1.0243692437494074e+01 3.8558737804432575e+00 -3.8559696480284252e+01 0 0 0
137 1 -8.1108803855284339e+00 3.9142000920916105e+00 -4.0352424825461263e+01 0 0 0
140 1 -8.1729375922162308e+00 6.1808245259367789e+00 -3.8418418801498845e+01 0 0 0
308 1 -1.0050855509189910e+01 6.0922298319933388e+00 -2.4201780805957124e+01 0 0 0
182 1 -1.0214439568736442e+01 6.0451080352454358e+00 -3.6407483796836232e+01 0 0 0
149 1 -8.1438505889608805e+00 -7.9843410582356533e+00 -3.6460358233063864e+01 0 0 0
309 1 -8.0112689338336267e+00 4.0075412744860746e+00 -2.4255582465129020e+01 0 0 0
103 1 -5.9647808957164639e+00 -8.0192981675628783e+00 -3.8584456236722140e+01 0 0 0
105 1 -4.1049294627506310e+00 -7.9982699729013707e+00 -4.0391393952676296e+01 0 0 0
139 1 -6.1172487839142242e+00 4.0140801292745785e+00 -3.8399191157681877e+01 0 0 0
138 1 -6.1914647859250964e+00 6.0435980876419313e+00 -4.0538466530750640e+01 0 0 0
141 1 -4.1307856878201532e+00 4.1997859475086035e+00 -4.0527837597508054e+01 0 0 0
142 1 -2.0907292460747731e+00 6.0184497938513628e+00 -4.0521699655708112e+01 0 0 0
143 1 -2.1032491517588845e+00 3.8272232155385151e+00 -3.8566179879344183e+01 0 0 0
144 1 -4.1023348227519190e+00 6.1486119636367773e+00 -3.8460116093002263e+01 0 0 0
733 1 -2.1188486389109717e-01 3.9914187552227633e+00 -4.0563193077584522e+01 0 0 0
736 1 -1.6289841243232542e-01 5.9495672554168877e+00 -3.8523854839532270e+01 0 0 0
146 1 -1.0373113685602245e+01 -6.0584876627762503e+00 -3.6454412113388067e+01 0 0 0
152 1 -8.2271160931685205e+00 -5.9935241459710573e+00 -3.4489148150079764e+01 0 0 0
159 1 -1.0205745446143895e+01 -4.0189185832394250e+00 -3.4349200394675044e+01 0 0 0
194 1 -1.0158511884302545e+01 -6.3899441220257565e+00 -3.2516338847010907e+01 0 0 0
209 1 -8.2369869394745177e+00 -4.2336685471832203e+00 -3.2319040797204174e+01 0 0 0
197 1 -7.9487377260073888e+00 7.9891265504122888e+00 -3.2333997980479623e+01 0 -1 0
193 1 -1.2065376811753254e+01 7.9887587623370333e+00 -3.2296023000941908e+01 0 -1 0
307 1 -1.2022959506147231e+01 3.9031629223143933e+00 -2.3999050197905316e+01 0 0 0
310 1 -5.9935900585482482e+00 6.0306286553811228e+00 -2.4222953108550172e+01 0 0 0
868 1 -2.5515199298292816e-02 2.0979600055260863e+00 -2.6182646747533649e+01 0 0 0
198 1 -6.2115256155319960e+00 -5.8947615215195333e+00 -3.2119169192138649e+01 0 0 0
154 1 -1.9832580510638049e+00 -5.9756121704773788e+00 -3.6364086079264091e+01 0 0 0
165 1 -4.0785337725112960e+00 -3.8713864339631283e+00 -3.6210485969607028e+01 0 0 0
163 1 -6.0654378612592605e+00 -4.1186885047062907e+00 -3.4369362543663584e+01 0 0 0
156 1 -4.0382636021890539e+00 -5.9016589388615781e+00 -3.4308590566931379e+01 0 0 0
167 1 -2.0748768137008926e+00 -4.0893810841467459e+00 -3.4193112720824701e+01 0 0 0
202 1 -2.0869254887742703e+00 -6.0730504521175295e+00 -3.2408149822833501e+01 0 0 0
213 1 -4.2285014071397864e+00 -3.9374756524445544e+00 -3.2183285380335576e+01 0 0 0
264 1 -4.2628306431772005e+00 -2.0329376508688499e+00 -2.6015870289587909e+01 0 0 0
158 1 -1.0118931745389510e+01 -2.0246588843159454e+00 -3.6293361114342410e+01 0 0 0
173 1 -8.1667327599221391e+00 -1.1356196704934431e-01 -3.6400856202792049e+01 0 0 0
170 1 -1.0093132590369166e+01 2.1341258127936356e+00 -3.6310179546082118e+01 0 0 0
164 1 -8.1615243516478397e+00 -1.9776899284995899e+00 -3.4284756331827445e+01 0 0 0
171 1 -1.0125313637442947e+01 1.4964759976833662e-02 -3.4242072178515620e+01 0 0 0
176 1 -8.0971545672357159e+00 2.3271866681093676e+00 -3.4484302094160377e+01 0 0 0
206 1 -1.0072699076803652e+01 -2.0577879013359608e+00 -3.2441311598149532e+01 0 0 0
218 1 -1.0092543058191607e+01 1.8987505863023235e+00 -3.2276520299387137e+01 0 0 0
221 1 -8.1330451345336314e+00 -2.9359557661809987e-02 -3.2286511990990171e+01 0 0 0
300 1 -1.9789060592701730e+00 -1.9876794189311180e+00 -2.4095660774654778e+01 0 0 0
175 1 -6.1003516979719574e+00 1.1293271626069950e-03 -3.4373601626100005e+01 0 0 0
210 1 -6.1570833307455128e+00 -1.9681568319039333e+00 -3.2226484589185873e+01 0 0 0
178 1 -2.1989498240343464e+00 2.1239569781937040e+00 -3.6427624596267663e+01 0 0 0
177 1 -4.0301810531692235e+00 2.0373525127957492e-02 -3.6421218574062436e+01 0 0 0
222 1 -6.1351064364867511e+00 1.9304947599373312e+00 -3.2399240886687345e+01 0 0 0
168 1 -4.1582007683157087e+00 -1.9194004847521620e+00 -3.4316203483218850e+01 0 0 0
179 1 -2.1942784051567719e+00 2.2164725423192314e-01 -3.4303790340555011e+01 0 0 0
180 1 -4.1673559908611759e+00 2.2549234349870089e+00 -3.4378477602384955e+01 0 0 0
214 1 -2.1332998448445579e+00 -1.9259706758661024e+00 -3.2341762964048542e+01 0 0 0
225 1 -4.0148464118758200e+00 -5.2165373813285232e-02 -3.2294120218602735e+01 0 0 0
226 1 -2.1637585472461747e+00 2.0363952756893480e+00 -3.2198398378501977e+01 0 0 0
185 1 -8.1117730288607355e+00 4.2298773578290776e+00 -3.6540754542291651e+01 0 0 0
151 1 -6.1097975861963612e+00 -7.8202126426823835e+00 -3.4183746959087330e+01 0 0 0
147 1 -1.0079404267570506e+01 7.8841168402195771e+00 -3.4363532839519976e+01 0 -1 0
183 1 -1.0119891682406664e+01 3.9601369591627544e+00 -3.4284519760578597e+01 0 0 0
188 1 -8.0195523345191635e+00 6.1064978534561920e+00 -3.4350877879350115e+01 0 0 0
233 1 -8.1291105586619956e+00 3.9764015713215595e+00 -3.2290776895954870e+01 0 0 0
230 1 -1.0035773831884248e+01 6.0956414442227906e+00 -3.2305821049658981e+01 0 0 0
187 1 -6.0803950808597103e+00 4.2655421242132929e+00 -3.4349055827208744e+01 0 0 0
229 1 -1.2111364367450253e+01 3.9656154192924964e+00 -3.2299091518042623e+01 0 0 0
186 1 -6.1103712736823423e+00 6.1402055480079145e+00 -3.6450026803415980e+01 0 0 0
190 1 -2.0063582249057701e+00 5.9634400011972968e+00 -3.6505022789969516e+01 0 0 0
155 1 -1.9963697131053828e+00 -8.0304012842829664e+00 -3.4495130247411694e+01 0 0 0
201 1 -4.0019567521415151e+00 -7.9450001506064449e+00 -3.2301856648597322e+01 0 0 0
234 1 -5.7902374232873370e+00 6.1574235364731882e+00 -3.2275416983724760e+01 0 0 0
153 1 -3.9831340638068840e+00 -7.9602547437124080e+00 -3.6340300666092496e+01 0 0 0
189 1 -4.0982946070239157e+00 4.1702106366582568e+00 -3.6381936415997735e+01 0 0 0
191 1 -2.0478230940781939e+00 4.1725146594631850e+00 -3.4383421282118064e+01 0 0 0
192 1 -4.1201881914132823e+00 6.1869572635644472e+00 -3.4537868195132312e+01 0 0 0
237 1 -4.1229674714996216e+00 3.9568164630075757e+00 -3.2259124259258570e+01 0 0 0
238 1 -1.9944724412135673e+00 5.9942095625921050e+00 -3.2287867929251028e+01 0 0 0
745 1 -1.0951372387126981e-02 -8.0147245085933623e+00 -3.6587486162995098e+01 0 0 0
200 1 -8.2067417137163599e+00 -6.2063685124708172e+00 -3.0254436226785732e+01 0 0 0
207 1 -1.0258974406373820e+01 -4.3579842506856679e+00 -3.0242593760877842e+01 0 0 0
242 1 -1.0129844419734040e+01 -6.1310633893300839e+00 -2.8191309656026604e+01 0 0 0
257 1 -8.2234571183168885e+00 -4.1324206316515335e+00 -2.8347575656828170e+01 0 0 0
245 1 -8.2825553800513596e+00 -8.0588524245384985e+00 -2.8248671412360522e+01 0 0 0
276 1 -4.0017487592520995e+00 2.1910166665433453e+00 -2.6077201120506164e+01 0 0 0
246 1 -6.0343425954145395e+00 -6.1033388390489947e+00 -2.8168359242415043e+01 0 0 0
211 1 -5.9227719017091758e+00 -4.0182142862370638e+00 -3.0061238500203665e+01 0 0 0
204 1 -4.0012516488447210e+00 -6.1302311473406954e+00 -3.0232958567182266e+01 0 0 0
215 1 -2.0596441556244258e+00 -3.9429343477809708e+00 -3.0313013813976351e+01 0 0 0
250 1 -2.0972114545271952e+00 -6.0496083840881401e+00 -2.8155866687846462e+01 0 0 0
261 1 -3.8822822155137335e+00 -3.9453381894585515e+00 -2.8074132396182815e+01 0 0 0
841 1 -1.1328087308550512e-01 8.0352833662574152e+00 -2.8005921365090455e+01 0 -1 0
796 1 -4.6024201958025993e-02 -6.0057953303636511e+00 -3.0142020904294473e+01 0 0 0
212 1 -8.0642700521590776e+00 -2.2340824141317785e+00 -3.0202877021612604e+01 0 0 0
219 1 -1.0138209804992355e+01 -3.1258602540676433e-01 -3.0037127705788258e+01 0 0 0
224 1 -8.2546794229666691e+00 1.7428484386086227e+00 -3.0233824724665570e+01 0 0 0
254 1 -1.0167962544468992e+01 -2.1854551568897644e+00 -2.8063609514032333e+01 0 0 0
266 1 -1.0121311626932911e+01 1.8957335206525860e+00 -2.8226033293534847e+01 0 0 0
269 1 -8.1339926089209840e+00 -1.4942860998104476e-01 -2.8328635998690668e+01 0 0 0
220 1 -1.2032369276641814e+01 2.0275131422850494e+00 -3.0135455885427774e+01 0 0 0
258 1 -6.1913424216325001e+00 -2.1767073056253747e+00 -2.8056880717759942e+01 0 0 0
223 1 -6.1426465723267683e+00 7.9020640252152552e-02 -3.0388515227675743e+01 0 0 0
270 1 -6.1859866881982262e+00 1.9684718111519623e+00 -2.8250037772355409e+01 0 0 0
216 1 -4.0206423276005188e+00 -1.8593237878243067e+00 -3.0041555558887204e+01 0 0 0
227 1 -2.0022112934037457e+00 -1.7520819711833512e-02 -3.0240868024747339e+01 0 0 0
228 1 -4.2068766355415326e+00 1.9959868618401400e+00 -3.0352815631004368e+01 0 0 0
262 1 -1.9368232585272203e+00 -1.8760466869288177e+00 -2.8273563718407004e+01 0 0 0
273 1 -4.0838130840212621e+00 1.0020895118120469e-01 -2.8108633583588560e+01 0 0 0
274 1 -2.1363460535412768e+00 2.1263514884156467e+00 -2.8103668193982124e+01 0 0 0
856 1 -1.1824276281442628e-01 -1.9937299817089793e+00 -2.6096224239710637e+01 0 0 0
275 1 -1.9272273119581456e+00 5.9698985162856620e-02 -2.6171064275109117e+01 0 0 0
195 1 -1.0243554159058844e+01 8.0279250704423788e+00 -3.0262100860809859e+01 0 -1 0
231 1 -9.9994626352798530e+00 3.9590607535600579e+00 -3.0092268580983241e+01 0 0 0
236 1 -8.1130012723659490e+00 6.0725066225503328e+00 -3.0354189888359191e+01 0 0 0
278 1 -1.0063680569413295e+01 6.0926021288167016e+00 -2.8177531385777762e+01 0 0 0
281 1 -7.9709430990880561e+00 4.0117541713432132e+00 -2.8191459847688421e+01 0 0 0
199 1 -5.9945046864010409e+00 -7.9925682651130465e+00 -3.0299954025529665e+01 0 0 0
235 1 -6.1019679005284706e+00 4.0414397277556366e+00 -3.0413249845873153e+01 0 0 0
282 1 -6.1454755198912823e+00 6.1023877044632577e+00 -2.8251930181078649e+01 0 0 0
249 1 -4.0579605487139059e+00 8.0291063205120246e+00 -2.8270805715859048e+01 0 -1 0
203 1 -1.8686154878892220e+00 -7.9953498850965197e+00 -3.0221079116634350e+01 0 0 0
239 1 -2.2114537814855919e+00 3.9644253416051409e+00 -3.0090902096443571e+01 0 0 0
240 1 -4.0578130610429284e+00 6.0827201158349444e+00 -3.0216774541362000e+01 0 0 0
285 1 -4.2486256938959945e+00 4.0380718986515998e+00 -2.8301615597204790e+01 0 0 0
286 1 -2.1417813299438575e+00 6.0024586010936529e+00 -2.8194606820009625e+01 0 0 0
877 1 -1.1134499832497748e-01 3.9611387186411418e+00 -2.8278302521908376e+01 0 0 0
243 1 -1.0224255070737605e+01 7.9778122044516824e+00 -2.6248858085580213e+01 0 -1 0
291 1 -8.0341927244418567e+00 8.0324277378941176e+00 -2.4238113552303432e+01 0 -1 0
248 1 -8.0874551015615346e+00 -6.0804767959815420e+00 -2.6256812933926536e+01 0 0 0
255 1 -1.0111041614563042e+01 -4.1468863647627963e+00 -2.6126212197081646e+01 0 0 0
290 1 -1.0244769144980332e+01 -6.2193562400143323e+00 -2.4316907522782877e+01 0 0 0
297 1 -7.9815014489531357e+00 -4.2347985465176770e+00 -2.4181109624006364e+01 0 0 0
292 1 -5.9445612697620911e+00 -6.2330606738819068e+00 -2.4211899680230101e+01 0 0 0
295 1 -1.2056462854579664e+01 -4.0615343459081892e+00 -2.4156429559549515e+01 0 0 0
259 1 -6.1717415559068343e+00 -4.1835507747494196e+00 -2.6191447733356789e+01 0 0 0
306 1 -1.9708699397168841e+00 2.1945875269170187e+00 -2.4090568554519034e+01 0 0 0
293 1 -4.0708578907756916e+00 8.0007546782711501e+00 -2.4248132913904520e+01 0 -1 0
305 1 -4.0426865020188920e+00 5.2064024504076274e-02 -2.4224430828537500e+01 0 0 0
303 1 -8.0690558387346716e+00 2.0217000919338571e-01 -2.4244574244479228e+01 0 0 0
252 1 -4.0004200803283245e+00 -6.0940865857768642e+00 -2.6247018708142232e+01 0 0 0
263 1 -2.0479892588400701e+00 -3.9719797304760425e+00 -2.6106563154384009e+01 0 0 0
294 1 -2.1675564586110014e+00 -6.0489422542864926e+00 -2.4094106618929349e+01 0 0 0
299 1 -3.9269544824047879e+00 -3.9757452942186178e+00 -2.4038008185436745e+01 0 0 0
304 1 -6.0512865879953246e+00 2.0267980943742767e+00 -2.4244424714100607e+01 0 0 0
271 1 -6.2468134474277708e+00 3.7330561128807289e-02 -2.6323697371711678e+01 0 0 0
298 1 -6.2410380847165161e+00 -1.9745961779044368e+00 -2.4215349082297863e+01 0 0 0
267 1 -1.0202703009012279e+01 5.3670430625302204e-02 -2.6273679859185126e+01 0 0 0
260 1 -8.1199286968574924e+00 -2.0213105188254197e+00 -2.6108604877371103e+01 0 0 0
272 1 -8.1890354107594572e+00 2.0586209613914974e+00 -2.6118783583443463e+01 0 0 0
296 1 -1.0146462381311187e+01 -1.8629641644325614e+00 -2.4305785122762614e+01 0 0 0
302 1 -1.0104958792481584e+01 2.0198039394051519e+00 -2.4204031560270291e+01 0 0 0
673 1 -1.4193618173327405e-01 6.5142491294198995e-02 -4.4643807108195901e+01 0 0 0
676 1 -1.3085703670411877e-01 2.0654515372529918e+00 -4.2589283183954905e+01 0 0 0
280 1 -1.2080518693675996e+01 5.8934317889163399e+00 -2.6286720540964385e+01 0 0 0
73 1 -1.2112376352431774e+01 -9.6479536831906524e-03 -4.4434331527106188e+01 0 0 0
685 1 -1.2739865670510114e-01 3.9673244466345183e+00 -4.4676087435766043e+01 0 0 0
688 1 -8.4956662561052627e-03 6.0614743616446418e+00 -4.2431283417332992e+01 0 0 0
709 1 -7.6849897577103171e-02 -3.9322160416187746e+00 -4.0448428220435424e+01 0 0 0
757 1 -4.6522673365899360e-02 -4.0536307362238402e+00 -3.6287744913678353e+01 0 0 0
697 1 -1.1181176764826647e-01 -7.9881010959875489e+00 -4.0566418913332868e+01 0 0 0
781 1 -7.3869276590920324e-02 4.0180347771196221e+00 -3.6534169666848094e+01 0 0 0
805 1 -7.0597596995250408e-02 -4.0854746947204807e+00 -3.2381149054015765e+01 0 0 0
793 1 -5.5299661758672090e-02 -7.9984286617625306e+00 -3.2490005507986986e+01 0 0 0
769 1 -8.6694917993840867e-02 7.3804626545119226e-02 -3.6259324059785079e+01 0 0 0
760 1 -8.8087506465714394e-02 -1.9221672438401176e+00 -3.4318330642314535e+01 0 0 0
817 1 -8.0557085134751877e-02 3.4574484259165053e-02 -3.2198265581153542e+01 0 0 0
772 1 -1.6132062213411763e-01 1.9871251092770648e+00 -3.4263257603881684e+01 0 0 0
784 1 -1.2381345508785613e-01 6.0966839267914494e+00 -3.4239536862373903e+01 0 0 0
829 1 -5.5904181126006654e-02 3.9758078366395240e+00 -3.2139597241839851e+01 0 0 0
184 1 -1.2108173632720266e+01 5.8854562120737741e+00 -3.4222607842222985e+01 0 0 0
853 1 -5.0827335603549587e-02 -4.0659225288285938e+00 -2.8176794865456284e+01 0 0 0
820 1 -6.9448314564858442e-03 1.9644710481606871e+00 -3.0395521164507418e+01 0 0 0
265 1 -1.2098874048895150e+01 -5.6620611474212913e-02 -2.8181983140926661e+01 0 0 0
256 1 -1.2068410269871960e+01 -2.0595137055524027e+00 -2.6007160290853196e+01 0 0 0
901 1 -2.7223908956140880e-03 1.1621366748193099e-01 -2.4068973708109986e+01 0 0 0
208 1 -1.2017770005360431e+01 -2.1381286532786423e+00 -3.0134025511741957e+01 0 0 0
832 1 -3.9920691272846608e-02 6.0149564911730034e+00 -3.0204191911675021e+01 0 0 0
232 1 -1.1883187904913777e+01 5.9551904331335201e+00 -3.0201079296520387e+01 0 0 0
277 1 -1.2080993792232464e+01 3.9574538684150853e+00 -2.8204200544852227e+01 0 0 0
316 1 -8.0304914547457980e+00 -6.1994798801425226e+00 -2.2090550803993779e+01 0 0 0
319 1 -9.9023738990539076e+00 -4.1948086782864040e+00 -2.2277001671441713e+01 0 0 0
338 1 -1.0084519777316920e+01 -6.1783451438086630e+00 -1.9996893351298223e+01 0 0 0
353 1 -8.1828078391953536e+00 -4.0762941901707315e+00 -1.9969946644887429e+01 0 0 0
321 1 -6.1198530191684597e+00 -3.9185809693716682e+00 -2.2177912655761840e+01 0 0 0
342 1 -6.1254265143025979e+00 -5.9767758303001495e+00 -2.0102233891718150e+01 0 0 0
313 1 -1.0085841411494110e+01 7.9956153255827882e+00 -2.2206772446287932e+01 0 -1 0
315 1 -6.1577550606177942e+00 8.0061192740905547e+00 -2.2259470861258315e+01 0 -1 0
349 1 -1.1985449482385304e+01 -4.2287240772253876e+00 -2.0145238110054322e+01 0 0 0
314 1 -1.1994691150156342e+01 -6.1066311546777534e+00 -2.2245728607210662e+01 0 0 0
318 1 -4.1254350889442541e+00 -6.0326750540683163e+00 -2.2154944361404389e+01 0 0 0
323 1 -2.0355994749768356e+00 -3.9040221959772881e+00 -2.2073367386633894e+01 0 0 0
346 1 -1.9607156402854824e+00 -6.1545162727261378e+00 -2.0035005150848708e+01 0 0 0
357 1 -4.0268105768199201e+00 -4.3208157853885272e+00 -2.0033468684192606e+01 0 0 0
949 1 -1.1241307255234546e-01 -4.1474481452969689e+00 -2.0090592850018247e+01 0 0 0
345 1 -4.2012114295084126e+00 -8.0382699663214936e+00 -2.0190117585628062e+01 0 0 0
317 1 -2.1067638266067061e+00 -7.9641461839865197e+00 -2.2043823640232723e+01 0 0 0
322 1 -8.1235693773811875e+00 -1.9808356939002632e+00 -2.2093004663064239e+01 0 0 0
325 1 -1.0209432435030156e+01 -8.9719533570976714e-02 -2.2127640109333424e+01 0 0 0
328 1 -8.0028487934188810e+00 1.9704424688553801e+00 -2.1920758827552735e+01 0 0 0
350 1 -1.0153247358651601e+01 -2.1516056913914858e+00 -2.0068986922930357e+01 0 0 0
362 1 -1.0112240126082819e+01 1.7119177653810325e+00 -1.9992189158235384e+01 0 0 0
365 1 -8.0450587565419092e+00 -1.0246973185597104e-01 -2.0066565061744040e+01 0 0 0
366 1 -5.8608061981247017e+00 1.7141387880051888e+00 -1.9989537213058753e+01 0 0 0
354 1 -6.0353818478746843e+00 -2.1912621337491927e+00 -2.0013506390102044e+01 0 0 0
326 1 -1.1952098261609008e+01 1.8988188492833686e+00 -2.2144275714954478e+01 0 0 0
527 1 -1.9558561262407976e+00 3.9824103232842005e+00 -5.6747204262045425e+00 0 0 0
327 1 -6.1339191362772238e+00 1.2276643979760055e-01 -2.2195313722935644e+01 0 0 0
324 1 -4.1391658324108072e+00 -1.8628194880977100e+00 -2.2047552647302656e+01 0 0 0
329 1 -1.9456325852289689e+00 -1.5908925263390189e-01 -2.2013768853140764e+01 0 0 0
330 1 -3.9307330687978395e+00 2.0082460376651361e+00 -2.2137068173592986e+01 0 0 0
358 1 -1.9976769222926005e+00 -2.1665693577707579e+00 -1.9974948259265474e+01 0 0 0
369 1 -3.8564888411541465e+00 -1.0486985548121157e-01 -2.0118855292963847e+01 0 0 0
370 1 -1.9599590124217592e+00 1.9647406371999649e+00 -2.0103149606883953e+01 0 0 0
570 1 -5.9113218612349909e+00 6.1752572232035616e+00 -3.6973139531039032e+00 0 0 0
576 1 -4.1325125204561450e+00 6.3544578352135668e+00 -1.6249243500360429e+00 0 0 0
573 1 -4.1528200202413972e+00 4.2190143676108862e+00 -3.7161976048228689e+00 0 0 0
341 1 -8.1386876806056598e+00 -8.0643112912430990e+00 -2.0117978025391153e+01 0 0 0
331 1 -1.0023388017590957e+01 3.7392991140275549e+00 -2.1873360936536780e+01 0 0 0
334 1 -7.9321675533068001e+00 5.9197987448393787e+00 -2.2170891235053386e+01 0 0 0
374 1 -1.0006672056960344e+01 6.0054928974885904e+00 -2.0063091736076320e+01 0 0 0
377 1 -8.0656320457445023e+00 3.8819018620726213e+00 -2.0029650588448302e+01 0 0 0