LAMMPS (28 Jun 2014)
#log		log.c
units           metal
dimension       3
boundary        p p p
atom_style      atomic
shell         mkdir  cfg
shell         mkdir  dump


# ----------------------- ATOM DEFINITION & Force Field -------------
read_data     NPT_relaxed.data       ##Read file dumped from simulation 1
Reading data file ...
  orthogonal box = (-12.1148 -8.07656 -88.728) to (12.1148 8.07656 20.3056)
  1 by 1 by 7 MPI processor grid
  reading atoms ...
  1200 atoms
  reading velocities ...
  1200 velocities

pair_style      eam/alloy
pair_coeff  	  * * Al_wkg_MSMSE_2009.set Al

#---------------------- DEFINE Laser GERION and GROUP ----------------
region       R1  block -7  7  INF  INF  INF  5  units box
group        G1 region R1
700 atoms in group G1
group        G2 subtract all G1
500 atoms in group G2


#define     temperature/pressure calculation  group
variable    x1atom atom "x>=0  &&  x<4 &&  z>-40 && z<1"     ##NEW!!!!!!!!!!!!
variable    x2atom atom "x>=-12.12  &&  x<-8.12 &&  z>-40 && z<1"
variable    x3atom atom "x>=0  &&  x<4 &&  z>-20 && z<1"
variable    x4atom atom "x>=-12.12  &&  x<-8.12 &&  z>-20 && z<1"
variable    x5atom atom "x>=196  &&  x<200 &&  z>-40 && z<1"

group       x1atom variable x1atom
150 atoms in group x1atom
group       x2atom variable x2atom
156 atoms in group x2atom
group       x3atom variable x3atom
79 atoms in group x3atom
group       x4atom variable x4atom
82 atoms in group x4atom
group       x5atom variable x5atom
0 atoms in group x5atom


compute      COM1x x1atom com
compute      COM2x x2atom com
compute      COM3x x3atom com
compute      COM4x x4atom com
compute      COM5x x5atom com

compute      COMall all com

#Temperature profile
#variable      Tprofile atom 300*(1+(step/5000)*2.5*exp(z/40))
variable      Tprofile atom 300*(1+(step/5000)*2.5*exp(z/75))

# ------------------------- SETTINGS ---------------------------------
thermo          100
thermo_style    custom step lx pxx pyy pzz temp c_COM1x[1] c_COM1x[2] c_COM1x[3] c_COM2x[1] c_COM2x[2] c_COM2x[3] c_COM3x[1] c_COM3x[2] c_COM3x[3] c_COM4x[1] c_COM4x[2] c_COM4x[3]  c_COM5x[1] c_COM5x[2] c_COM5x[3] c_COMall[1] c_COMall[2] c_COMall[3]

timestep       0.002


compute dispall all displace/atom
# ---------------- Run Laser Material Interaction --------------------
#dump          1 all custom 1000 dump/z1dump.atom id type x y z c_dispall[1]  c_dispall[2]  c_dispall[3] c_dispall[4]
#dump          2 all cfg 100 cfg/*.cfg mass type xs ys zs
#dump_modify   2 element Al

#relax for 2 PS
#fix           1 all nvt temp 300.0 300.0 0.1
#run  1000
#unfix         1

fix           1  all nve
fix           3temp  G1  langevin  v_Tprofile  0  0.1  378411   #TEST ALL
run           5000
Setting up run ...
Memory usage per processor = 0.0832863 Mbytes
Step Lx Pxx Pyy Pzz Temp COM1x[1] COM1x[2] COM1x[3] COM2x[1] COM2x[2] COM2x[3] COM3x[1] COM3x[2] COM3x[3] COM4x[1] COM4x[2] COM4x[3] COM5x[1] COM5x[2] COM5x[3] COMall[1 COMall[2 COMall[3 
       0    24.229687   -797.96512   -437.23255   -1124.9047    305.03465    1.7106349  -0.84359423   -18.868121   -10.362171  -0.87988042   -18.625623    1.2987219  -0.61004647   -9.1888619   -10.575115  -0.88015406   -8.9679504            0            0            0   -1.0095703   -1.0095703   -24.115483 
     100    24.229687   -442.38096   -645.19281   -1386.8518    311.16839    1.6996042  -0.85282217   -18.881204   -10.390632   -0.8518289   -18.621601    1.2527604  -0.60723205   -9.2141978   -10.602079  -0.89116705   -8.9918919            0            0            0   -1.0223303   -1.0161667    -24.12622 
     200    24.229687    118.66452   -40.210579   -731.80771    300.69842    1.6729762  -0.84505942   -18.883594   -10.411449  -0.86806221   -18.606894    1.2069469   -0.6028976   -9.2551645   -10.647345  -0.91570268    -8.937127            0            0            0   -1.0400838   -1.0060176   -24.130402 
     300    24.229687    212.47508    354.29998   -241.80365    323.64885    1.6491221  -0.89956832   -18.912303    -10.44278  -0.85824428   -18.605042    1.1774385   -0.6760961   -9.2937113    -10.67986  -0.89150905    -8.939256            0            0            0   -1.0688399   -1.0243098   -24.124215 
     400    24.229687    857.94734    1003.0236     667.4946    337.01151    1.6377174  -0.89692681   -18.903689   -10.437076  -0.92310883   -18.602695    1.1739851  -0.66811991   -9.2442338   -10.701957  -0.99133141   -8.9936002            0            0            0   -1.0816759   -1.0481601    -24.11802 
     500    24.229687    1587.2804    1482.6495    1621.0206    337.72944    1.6355156  -0.87452204   -18.911792   -10.444489  -0.94411063   -18.630352     1.160603  -0.65108763   -9.2876927   -10.701085   -1.0340682   -9.0028553            0            0            0   -1.0838969   -1.0455869   -24.126296 
     600    24.229687    829.85866    1106.7427    313.48424    351.28095    1.6577729   -0.9005385   -18.886214   -10.386844  -0.91191934   -18.643319    1.1760006  -0.70523637   -9.2298481   -10.644532  -0.95543829   -8.9829285            0            0            0   -1.0514654   -1.0476462   -24.142015 
     700    24.229687    909.59317    955.56801    271.55503     354.3076    1.6809136  -0.86691675   -18.922729   -10.395417   -0.8917319   -18.625354    1.2003229  -0.70035329   -9.2730758   -10.617851  -0.97042777   -8.9646874            0            0            0   -1.0228542   -1.0365233    -24.14906 
     800    24.229687    1533.2126    1392.2234    928.87852    373.68667    1.7181704  -0.90050898   -18.915064   -10.378956  -0.90329627   -18.654625    1.2512727  -0.72550282   -9.3058591   -10.685342  -0.96893472   -8.9698882            0            0            0  -0.98826836   -1.0570818   -24.155752 
     900    24.229687    1871.4363    1710.7153    1642.3555    378.37429    1.7262747  -0.83619465    -18.95777   -10.353591   -0.9053968   -18.665985    1.2510954  -0.62825771   -9.2914035   -10.648728  -0.96717282   -9.0361753            0            0            0  -0.97309663   -1.0631323   -24.171632 
    1000    24.229687    2436.9691    2428.5094    2430.0408     385.1118    1.7314711  -0.88017745   -18.962905    -10.36306   -0.9233087   -18.663382     1.247067  -0.62304014   -9.3781547   -10.622518  -0.95727592   -9.0574926            0            0            0  -0.97312798   -1.0584504   -24.173716 
    1100    24.229687    2439.9549    2134.3722     1876.518    401.38684    1.7161637  -0.87841144   -18.952344   -10.363731  -0.86022325   -18.687783    1.2384767  -0.67361839   -9.2907164   -10.628578  -0.86575238   -9.0379938            0            0            0  -0.98811287   -1.0347737   -24.179199 
    1200    24.229687    2348.7106    2529.8765    1356.7683    405.06508    1.7435232  -0.86070177   -18.966384   -10.338995  -0.84594999   -18.675878     1.272404  -0.58723178   -9.3392778   -10.640363  -0.87850736   -9.0191138            0            0            0   -0.9779498   -1.0260711   -24.198125 
    1300    24.229687    1520.8245    2198.6222    595.29245    412.47135    1.7696274  -0.85934921    -18.97582   -10.289191  -0.91058468   -18.652061    1.2467582  -0.55011072   -9.3057038   -10.582388  -0.97842652   -8.9589056            0            0            0  -0.93748691   -1.0573591   -24.199751 
    1400    24.229687    1792.5401    2049.4696    308.03207    442.48961    1.7958601  -0.91456296   -18.930441   -10.277375  -0.95114038   -18.640667    1.2644439  -0.62836587   -9.2407906   -10.577047  -0.94386241   -8.9351649            0            0            0  -0.91310887   -1.1012105   -24.201931 
    1500    24.229687    1452.8224    2019.1991    295.70444    437.38533    1.8214203  -0.96797467   -18.941432   -10.274004  -0.93970842   -18.724713    1.3223055  -0.66176486   -9.2611421   -10.580904  -0.92042374   -9.0017078            0            0            0  -0.90332548   -1.1211246   -24.223114 
    1600    24.229687    1866.8246    2179.9544    346.36299    444.52289    1.8195849  -0.98837118   -18.979245   -10.274987  -0.97891811    -18.68689    1.2957476  -0.70853736    -9.307625   -10.567253  -0.96223024    -8.994855            0            0            0   -0.9165865   -1.1368321   -24.230713 
    1700    24.229687    2197.4356    2175.0421     335.1721    456.63174    1.8105424  -0.92596324   -18.968198   -10.273391   -1.0200248   -18.688947    1.3016875   -0.6524308    -9.244614   -10.512705   -1.0174126    -8.965629            0            0            0  -0.92409026   -1.1233149    -24.22318 
    1800    24.229687     2357.262    2612.6454    517.11377    463.19888    1.7484329  -0.92624841   -18.927416   -10.350525  -0.98661032   -18.680582    1.2683442  -0.61848004   -9.2298737   -10.624817   -1.0002459   -8.9841887            0            0            0  -0.95339116   -1.1075503   -24.203959 
    1900    24.229687    2804.8273    2637.2724    795.75852    486.34072    1.7060349   -0.9252332   -18.925293   -10.395661  -0.91327727   -18.660187    1.2350689    -0.633784   -9.2191226   -10.652319  -0.90340415   -8.9129316            0            0            0  -0.98717702   -1.0787268   -24.198862 
    2000    24.229687    2572.5195    2750.0611      337.601    493.67924    1.7001709  -0.91028922    -18.90604   -10.359409   -0.9010206   -18.617206     1.225656  -0.68539424   -9.2233046   -10.594872  -0.86934882   -8.8559187            0            0            0  -0.99078074   -1.0717842   -24.182051 
    2100    24.229687    2837.7486    2689.7345    150.03926    508.33234    1.7371357  -0.96657146   -18.905086   -10.378801  -0.93935774   -18.567381    1.3144773  -0.71198971    -9.199921   -10.641345  -0.93403365   -8.8103921            0            0            0  -0.99074183   -1.1168416    -24.17256 
    2200    24.229687    3788.8988    3889.8397    1336.0072    528.13459    1.7249749   -1.0147881   -18.919455   -10.319835   -1.0242193   -18.604279    1.2782899  -0.76568263   -9.1980757   -10.514189   -1.0860477   -8.8616251            0            0            0  -0.98237054   -1.1756674   -24.175976 
    2300    24.229687    3897.3111    3469.0997    1919.4095    525.70341    1.7305644   -1.0251421   -18.870647   -10.313181   -1.1022265   -18.668473    1.3524731  -0.72483009   -9.1122416   -10.537083    -1.127397   -8.9358586            0            0            0  -0.98209467   -1.2081549   -24.173239 
    2400    24.229687    4066.6423    3765.5813    1616.6588    553.37539    1.7060688   -1.0311682   -18.870748   -10.353983   -1.1083021   -18.632015    1.2804841  -0.79297203   -9.1200586   -10.544756   -1.1062325   -8.8762799            0            0            0  -0.99780398   -1.2034889   -24.182817 
    2500    24.229687     3221.849    3196.8762    221.58929    564.14294    1.7138975   -1.0166567   -18.908559   -10.389601   -1.0447945   -18.653709    1.3119576  -0.75697211   -9.1612009   -10.582672   -1.0853838   -8.9222327            0            0            0   -1.0225164    -1.179196   -24.207479 
    2600    24.229687    4498.5345    4239.7586    2245.9884    575.04272    1.6826872  -0.98476443   -18.934313   -10.408031   -1.0096791   -18.692473     1.251933  -0.77885701   -9.2004986    -10.57782   -1.1016862   -8.9526073            0            0            0   -1.0414007    -1.137667   -24.219061 
    2700    24.229687    3578.4886    3932.3589    1360.6983    578.07894    1.6579481  -0.91699341   -18.898644   -10.420817   -1.0080331   -18.616976    1.2355668  -0.69183819   -9.1250935   -10.634954   -1.0644094   -8.8303213            0            0            0   -1.0477881   -1.1111227    -24.20279 
    2800    24.229687    4193.0312    4614.7022    1514.4063    573.72212    1.6909086  -0.97171001   -18.903903   -10.400619  -0.98111764    -18.61651      1.24602  -0.74674869   -9.0754806   -10.660453   -1.0478833   -8.8014399            0            0            0   -1.0401438   -1.1103627   -24.203266 
    2900    24.229687    3929.9366    4037.5487    563.48594    588.06756    1.7254946  -0.94589144   -18.896887   -10.413454  -0.91811813   -18.624674    1.2538551  -0.69211316   -9.0824142   -10.687146   -0.9424064   -8.8084794            0            0            0   -1.0284843   -1.0994616   -24.202248 
    3000    24.229687    3979.1226    4254.9427    21.096775    608.27862    1.6876664  -0.97696687   -18.916107   -10.331288  -0.91771646   -18.584052    1.1803143  -0.71310583   -9.0524575   -10.603054  -0.95035856   -8.6779928            0            0            0   -1.0171728   -1.1157705   -24.220286 
    3100    24.229687    3597.9013    2960.2711   -604.68958    627.29125    1.7579246  -0.96035913   -18.938036   -10.392136    -1.013422   -18.650019    1.2372946  -0.72479086   -9.1001405   -10.752329   -1.0370669   -8.8032079            0            0            0   -1.0159314   -1.1523545    -24.23818 
    3200    24.229687    3965.2005    3243.7001   -562.98979    625.03194    1.7004765  -0.98888455   -18.936236   -10.356068   -1.0426051   -18.618702    1.1601824  -0.72115314   -9.0601088    -10.64134   -1.0388293   -8.7698112            0            0            0   -1.0157158   -1.1852716   -24.279175 
    3300    24.229687    3530.4594    3594.7634   -455.95284    641.36914    1.7039572   -1.0368126   -19.016056   -10.369096   -1.0414552   -18.761657    1.2211393  -0.74830613   -9.2155612   -10.627557   -1.0839351   -8.9023278            0            0            0   -1.0105811   -1.1816276   -24.331748 
    3400    24.229687    2849.8376    3373.9118   -1298.9964    639.89447    1.6984834  -0.98513468   -18.979017   -10.386356   -1.0163723   -18.757985    1.1968816  -0.75370852   -9.1346739   -10.639921   -1.0354643    -8.846067            0            0            0   -1.0082754   -1.1553808   -24.376254 
    3500    24.229687    3367.5372    4117.3452   -21.494762    632.10861    1.7573198   -1.0311116   -19.043733   -10.401312  -0.98811535   -18.845517    1.3081934  -0.75642766   -9.1749218   -10.692747  -0.99135774    -8.913886            0            0            0   -0.9750063   -1.1716248   -24.408914 
    3600    24.229687    4805.3214    5234.0534    1932.7527    656.59223    1.7506211   -1.0540096   -19.088221   -10.310369   -1.0315852   -18.802434    1.2718846  -0.79615488    -9.226541   -10.548539   -1.0501772   -8.9450601            0            0            0  -0.94713317   -1.1933152   -24.426575 
    3700    24.229687    5727.2289    5410.8943    1328.1698    649.41015    1.8216407   -1.0193321   -19.090211   -10.273051   -1.0818866   -18.818738    1.3678557  -0.74513567   -9.2065152   -10.501111   -1.0810697   -8.9779788            0            0            0  -0.92158685   -1.2068581   -24.423605 
    3800    24.229687    5291.8928    5697.0391    825.58719    660.57605    1.7867689   -1.0218099   -19.114769   -10.265086    -1.081606   -18.871224    1.3602272  -0.73076945    -9.241161   -10.506824   -1.1107154   -9.0569755            0            0            0  -0.93026209   -1.2171206   -24.440045 
    3900    24.229687    5261.3299    5349.4921    430.32823    710.21962    1.7946278   -1.0404809   -19.094071   -10.330621   -1.0060813   -18.839172    1.3869259  -0.77601304   -9.1998037   -10.567778  -0.98869805   -8.9306306            0            0            0  -0.94521679   -1.1985674   -24.436356 
    4000    24.229687    6169.0296    6418.5633     1918.849    721.07815    1.7523739   -1.0538931   -19.122534   -10.346465   -1.0093529   -18.840978    1.3106782  -0.83727759   -9.3020883   -10.558736   -1.0414418   -8.9367429            0            0            0  -0.95753439   -1.1694107   -24.463333 
    4100    24.229687    4969.0218    4653.0251    1083.7419     714.1168    1.7194838  -0.94480209   -19.108604   -10.373089  -0.99012734   -18.854129    1.2987034  -0.67111328   -9.2171062   -10.602862   -1.0397532   -8.9133849            0            0            0  -0.98105588   -1.1501133   -24.495908 
    4200    24.229687    5202.1615    5362.2777    751.82361    759.93071    1.7089322  -0.98749366   -19.104013   -10.375223   -1.0664886   -18.893545    1.2612809  -0.68713846   -9.1146089   -10.598659   -1.1155542   -8.9842534            0            0            0  -0.99768251    -1.156437   -24.510797 
    4300    24.229687    6740.2568    5982.0946    1685.9587    758.77828    1.6812196   -1.0001054   -19.084923   -10.338053   -1.0813672   -18.941314    1.1920588  -0.73420396   -9.1014222   -10.592543   -1.0546409   -8.9957274            0            0            0  -0.97168735   -1.1572586   -24.517796 
    4400    24.229687    6512.3409    6216.7066    1842.4379     783.5341    1.7373853  -0.90652987   -19.122205   -10.409279   -1.0142972    -18.89326     1.287474  -0.60672908    -9.142523   -10.682789   -1.0204802    -8.948266            0            0            0  -0.96687805   -1.1279085   -24.534257 
    4500    24.229687    5332.1136    5633.9282    20.904658    785.66463     1.743602  -0.92203461   -19.131622   -10.353992  -0.95476664   -18.849311    1.2765144  -0.62242315   -9.1815396   -10.652928  -0.93701463   -8.8543374            0            0            0    -0.946755   -1.1000551     -24.5322 
    4600    24.229687     5922.586    6609.7589   -349.65148    798.63304    1.7952543  -0.92859386   -19.094997   -10.310042  -0.88971408    -18.86526    1.3382486  -0.66774526   -9.1121941   -10.582587    -0.883838   -8.8485657            0            0            0  -0.91950087   -1.0913759   -24.507232 
    4700    24.229687    6016.7202    6558.8799    877.16676    823.34585    1.8083693  -0.87116935   -19.082013   -10.219459  -0.94428315   -18.828052    1.4118327  -0.60223658   -9.0174969   -10.417735   -0.9503621   -8.8468478            0            0            0  -0.89522673   -1.0900033   -24.497038 
    4800    24.229687    5885.5894    5328.6846     1095.015    788.73216    1.7945795  -0.94467801   -19.020692   -10.247756  -0.94714636    -18.86883    1.3743889  -0.67883643   -8.9069382   -10.394979  -0.97548941   -8.9255822            0            0            0  -0.91200031   -1.1191591   -24.498869 
    4900    24.229687    4804.7597     5129.302     731.1003    792.21065    1.7415705  -0.95102554   -19.077325   -10.274921  -0.92998184   -18.925283    1.3701089  -0.67729179   -8.9965998   -10.412333  -0.97097495   -8.9910431            0            0            0  -0.93664731   -1.1018779   -24.530938 
    5000    24.229687    5696.1064    4788.8686   -129.23452    833.22744    1.7414063    -0.931271   -19.095757   -10.330537  -0.90474786   -18.891191    1.3444461  -0.63907762   -8.9648553   -10.540148  -0.87791831   -8.8949019            0            0            0  -0.97027623    -1.069238   -24.550746 
Loop time of 8.77823 on 7 procs for 5000 steps with 1200 atoms

Pair  time (%) = 4.72636 (53.8419)
Neigh time (%) = 0.045529 (0.518658)
Comm  time (%) = 1.50199 (17.1104)
Outpt time (%) = 0.0365228 (0.416061)
Other time (%) = 2.46782 (28.113)

Nlocal:    171.429 ave 382 max 0 min
Histogram: 3 0 0 0 0 1 0 1 1 1
Nghost:    1143.86 ave 2398 max 0 min
Histogram: 2 0 1 0 0 1 1 0 0 2
Neighs:    11448.4 ave 27198 max 0 min
Histogram: 3 0 0 0 0 2 0 0 1 1

Total # of neighbors = 80139
Ave neighs/atom = 66.7825
Neighbor list builds = 69
Dangerous builds = 0


variable  com1_x equal "c_COM1x[1]"
variable  com1_y equal "c_COM1x[2]"
variable  com1_z equal "c_COM1x[3]"
variable  com2_x equal "c_COM2x[1]"
variable  com2_y equal "c_COM2x[2]"
variable  com2_z equal "c_COM2x[3]"
variable  com3_x equal "c_COM3x[1]"
variable  com3_y equal "c_COM3x[2]"
variable  com3_z equal "c_COM3x[3]"
variable  com4_x equal "c_COM4x[1]"
variable  com4_y equal "c_COM4x[2]"
variable  com4_z equal "c_COM4x[3]"
variable  com5_x equal "c_COM5x[1]"
variable  com5_y equal "c_COM5x[2]"
variable  com5_z equal "c_COM5x[3]"
variable  comall_x equal "c_COMall[1]"
variable  comall_y equal "c_COMall[2]"
variable  comall_z equal "c_COMall[3]"


fix          2 all print 100 "${com1_x}   ${com1_y}   ${com1_z}  ${com2_x}   ${com2_y}   ${com2_z} ${com3_x}   ${com3_y}   ${com3_z} ${com4_x}   ${com4_y}   ${com4_z} ${com5_x}   ${com5_y}   ${com5_z} ${comall_x}   ${comall_y}   ${comall_z}" file COM.data screen no
#-------------------------- Wave Propagation -------------------------
unfix        3temp
run          1000000
Setting up run ...
Memory usage per processor = 0.0832863 Mbytes
Step Lx Pxx Pyy Pzz Temp COM1x[1] COM1x[2] COM1x[3] COM2x[1] COM2x[2] COM2x[3] COM3x[1] COM3x[2] COM3x[3] COM4x[1] COM4x[2] COM4x[3] COM5x[1] COM5x[2] COM5x[3] COMall[1 COMall[2 COMall[3 
    5000    24.229687    5696.1064    4788.8686   -129.23452    833.22744    1.7414063    -0.931271   -19.095757   -10.330537  -0.90474786   -18.891191    1.3444461  -0.63907762   -8.9648553   -10.540148  -0.87791831   -8.8949019            0            0            0  -0.97027623    -1.069238   -24.550746 
    5100    24.229687    3974.2743    5729.0853   -536.70687    813.67475    1.7251236  -0.80559201   -19.153922   -10.330938  -0.86374442   -18.738253    1.2404399  -0.39892076   -9.1011706   -10.571054    -0.820602   -8.6463499            0            0            0   -0.9730471   -1.0301303   -24.556277 
    5200    24.229687    3747.2604    4795.7247   -952.19158    808.75879    1.7234975   -0.7465884   -19.172793   -10.355999  -0.87333474   -18.833838    1.2246669  -0.44244347    -9.146626   -10.682042  -0.76324166    -8.702042            0            0            0  -0.97581796  -0.99102265   -24.561809 
    5300    24.229687    4466.7793    4687.8026   -1787.0766    788.12584    1.7017794  -0.73696484   -19.135017   -10.338307  -0.72412688   -18.800446    1.0798284  -0.39265721   -9.0986286   -10.697595  -0.54569781   -8.6360375            0            0            0  -0.97858883  -0.95191495    -24.56734 
    5400    24.229687    4223.1745     4446.146   -1623.5893    811.65564    1.6990184  -0.74734227   -19.044945   -10.340783  -0.69355192    -18.85311    1.0938493  -0.36812132   -8.9019269   -10.767185  -0.64119348   -8.7748261            0            0            0   -0.9813597  -0.91280725   -24.572872 
    5500    24.229687    4336.5837    4085.7989   -1540.2125    830.32146    1.6939065  -0.64186031   -19.166357   -10.376222  -0.66134886   -18.868578    1.0474003  -0.23402016   -9.0435828   -10.750467  -0.59497879   -8.8606434            0            0            0  -0.98413057  -0.87369955   -24.578403 
    5600    24.229687    6097.5537    5652.8255    166.53671    815.36266    1.6794489  -0.68554183   -19.172992   -10.427965  -0.68051478   -18.935649    1.1139506   -0.3585161   -9.0692702   -10.772758   -0.6145385   -8.9493313            0            0            0  -0.98690144  -0.83459184   -24.583934 
    5700    24.229687    5610.6652    5550.9866   -673.75233    841.92154    1.6319587  -0.63242025   -19.175749   -10.430763   -0.5811813    -18.90278    1.1303015   -0.3118004   -9.1778318    -10.76327  -0.52545268    -8.886348            0            0            0  -0.98967231  -0.79548414   -24.589466 
    5800    24.229687    6984.4283    7082.4411    1877.7444    831.72565    1.6675231   -0.5975677    -19.21786   -10.472286  -0.64090564   -18.874327    1.1972976  -0.31123002   -9.2098539   -10.766888  -0.61424258   -8.8425159            0            0            0  -0.99244318  -0.75637644   -24.594997 
    5900    24.229687    6030.6926    6922.0617    819.78885    832.25217    1.6562335  -0.47313151    -19.23783   -10.418179  -0.60268483    -18.90864    1.1695254  -0.22673923   -9.2408212   -10.689993  -0.66999489   -8.9291094            0            0            0  -0.99521405  -0.71726874   -24.600529 
    6000    24.229687    5742.6989    5874.7412    773.73761    843.20309    1.6951214    -0.537325   -19.188747   -10.388092  -0.58975746   -18.956909    1.1695175  -0.38577611    -9.168421     -10.6395  -0.64105919   -8.9413143            0            0            0  -0.99798492  -0.67816104    -24.60606 
    6100    24.229687    5177.2606    5207.5783    -631.5712     848.0417    1.6961246  -0.52250658   -19.133916   -10.320611  -0.49797822   -18.982142    1.2164835  -0.40750166   -9.0767823   -10.605674  -0.63112353   -8.8845585            0            0            0   -1.0007558  -0.63905334   -24.611591 
    6200    24.229687    5547.6846    5187.1964    -671.8693    803.44437    1.7667555  -0.51268848   -19.126461   -10.339228  -0.48964325   -18.979514    1.3365823  -0.38610487   -9.1012143   -10.600785  -0.72271501   -8.9712471            0            0            0   -1.0035267  -0.59994564   -24.617123 
    6300    24.229687    4561.0903    5486.5337   -1726.7032    800.78192    1.7376173  -0.41594166   -19.166167   -10.292663  -0.47759871    -18.82414    1.3153588  -0.28911527   -9.0554931   -10.514789   -0.7215599   -8.7954597            0            0            0   -1.0062975  -0.56083794   -24.622654 
    6400    24.229687     5273.279    4918.0447   -1381.8843    801.88004    1.7968873  -0.44443835   -19.227448   -10.305708  -0.44830494   -18.883908    1.3972702  -0.37953866   -9.1121231   -10.485059  -0.61532371   -8.7868266            0            0            0   -1.0090684  -0.52173024   -24.628186 
    6500    24.229687    4678.9641     4966.884   -878.46808    835.99222    1.7225111   -0.3961832   -19.225794   -10.258059  -0.35654035   -18.932052       1.3248  -0.31283819   -9.1967883   -10.402458  -0.47842148   -8.7727761            0            0            0   -1.0118393  -0.48262254   -24.633717 
    6600    24.229687    5172.0192     4678.097   -201.68279     826.5084    1.7878757  -0.34613174   -19.204578   -10.335577  -0.35920268   -18.961763    1.4068734  -0.15665378   -9.1455645   -10.546835  -0.50207879   -8.8248981            0            0            0   -1.0146101  -0.44351484   -24.639249 
    6700    24.229687    6120.3065    6026.1479   -53.380111    828.33536    1.7288508  -0.23279941   -19.225251   -10.325072  -0.34683109   -18.956095    1.3577362 -0.019121792   -9.1586166   -10.512858  -0.48085247   -9.0319673            0            0            0    -1.017381  -0.40440714    -24.64478 
    6800    24.229687    6655.6928    5832.7917    242.86249    836.38995    1.7277819  -0.23073955   -19.189047   -10.368372  -0.28402507   -18.966942    1.3511089 -0.00011227086   -9.1594622   -10.524333  -0.30488326   -9.0319842            0            0            0   -1.0201519  -0.36529944   -24.650311 
    6900    24.229687    6159.8498    5770.2267    476.96145     840.6352    1.7001748  -0.21099629   -19.225763   -10.373501  -0.16168591   -18.980693    1.3492097  0.001671001   -9.2338166    -10.48269  -0.18211202   -8.9874359            0            0            0   -1.0229227  -0.32619174   -24.655843 
    7000    24.229687    6850.0277    7143.1435    1349.4189    814.13144    1.7077436  -0.14179369    -19.21803   -10.466001  -0.12862936   -19.027494    1.3741445   0.15409383   -9.2144328   -10.599672  -0.13981144   -8.9993038            0            0            0   -1.0256936  -0.28708404   -24.661374 
    7100    24.229687      6291.81    5588.8852    377.56188    819.38966    1.6282854 -0.037791071   -19.283134    -10.39326  -0.11692234   -18.991979    1.2911458   0.24130225    -9.193125    -10.54095  -0.11083369   -8.9320493            0            0            0   -1.0284645  -0.24797634   -24.666906 
    7200    24.229687    5413.7978    5069.5869   -589.24919    804.35771    1.6688057  0.017324707   -19.233805   -10.475812 -0.020359957   -18.874382    1.2602157    0.3195196   -9.1550108   -10.684393 -0.015389879   -8.8323922            0            0            0   -1.0312353  -0.20886864   -24.672437 
    7300    24.229687    3951.7733    4794.1951   -1252.4292    825.43843    1.6555183 -0.0053695914   -19.246515   -10.435658  0.060620805    -18.88107    1.1382957   0.34698749   -9.2566622   -10.736209  0.077525177    -8.846577            0            0            0   -1.0340062  -0.16976094   -24.677968 
    7400    24.229687    4999.4506    5379.5468   -963.27342    841.73145    1.6805118  0.060151922   -19.258092   -10.402411   0.13306897   -18.990872    1.0706245   0.35516695   -9.2607199   -10.719518   0.16638499   -8.8845455            0            0            0   -1.0367771  -0.13065324     -24.6835 
    7500    24.229687     4760.551    4737.3806   -549.74964    833.97096    1.6879081   0.12477192   -19.188669   -10.390362   0.10436803   -18.981681    1.1050913   0.45457728   -9.0748085   -10.786861   0.18159927    -8.941806            0            0            0    -1.039548 -0.091545536   -24.689031 
    7600    24.229687    5999.2264    5395.5527    371.65838    805.92257    1.6708449   0.16014156   -19.271093   -10.419348   0.15744575   -19.032642    1.0243557   0.52396602   -9.1765312   -10.846116   0.24856515   -8.9905353            0            0            0   -1.0423188 -0.052437835   -24.694563 
    7700    24.229687    5637.9767    6693.5423    1326.1463     813.2188    1.6263878   0.18415633   -19.264042    -10.45636   0.19611106   -19.040328    1.0652123   0.50355671   -9.3055297   -10.825409   0.28065775   -8.9711466            0            0            0   -1.0450897 -0.013330135   -24.700094 
    7800    24.229687    5892.0763    5995.2497    939.11037    815.25629    1.6169501   0.18177719   -19.322874   -10.467207    0.1698166   -18.979906    1.1047523    0.5221945   -9.3542247   -10.790363   0.26614185   -8.9497736            0            0            0   -1.0478606  0.025777566   -24.705626 
    7900    24.229687    6236.3545    5434.5042    5.3317106    842.04449    1.5731544   0.28428107   -19.290021   -10.482196   0.18888765   -19.057176    1.0860185   0.61573335   -9.3302787   -10.732331   0.17716593   -9.0948675            0            0            0   -1.0506314  0.064885266   -24.711157 
    8000    24.229687     6011.977     5473.742    741.99617    821.41349    1.5649744   0.23474466   -19.250488   -10.490411   0.25751484   -19.045475    1.1535238   0.54429151   -9.2624864     -10.7091   0.20607666   -9.0505902            0            0            0   -1.0534023   0.10399297   -24.716688 
    8100    24.229687    6525.3701    4993.9952    569.88666    801.36687    1.6096109   0.26314643   -19.278607   -10.514802   0.32084596   -19.057053    1.2158511   0.42128949   -9.2442589   -10.738134   0.26793892   -8.9737449            0            0            0   -1.0561732   0.14310067    -24.72222 
    8200    24.229687    4178.3335    5349.1802   -790.68317    803.22511    1.6200829   0.33693925   -19.261741   -10.468972   0.34757656   -18.996364    1.2303885   0.43972291   -9.2255534   -10.671412   0.23463356   -8.9345127            0            0            0    -1.058944   0.18220837   -24.727751 
    8300    24.229687    5076.0744    4567.9888   -1612.8749    828.88038    1.6556347   0.39061889   -19.312305   -10.419543   0.28143431     -19.0186    1.2214297   0.52059216   -9.2554502   -10.623719  0.087091265   -9.0052166            0            0            0   -1.0617149   0.22131607   -24.733283 
    8400    24.229687    5566.0012    5797.2778     217.4151    819.19822    1.6938698   0.40619326   -19.272557   -10.373997   0.36347963   -19.100459    1.2417593   0.55576486    -9.246324   -10.613521   0.17524851   -9.0951168            0            0            0   -1.0644858   0.26042377   -24.738814 
    8500    24.229687    5491.9795    5828.8567    102.33379    811.31945    1.7017743   0.32595087   -19.250521   -10.347184   0.43229584   -19.076228    1.2590801    0.4364908   -9.2430063   -10.587936   0.30748327   -9.0129186            0            0            0   -1.0672566   0.29953147   -24.744345 
    8600    24.229687    4872.7697      4873.61   -125.68707    824.44219    1.7470107   0.44728056   -19.372543   -10.369791   0.46665779   -19.028093    1.3126137   0.58655779   -9.3857571    -10.61052    0.3560011   -8.9792995            0            0            0   -1.0700275   0.33863917   -24.749877 
    8700    24.229687     4959.149    5187.4685   -38.292334    818.64397    1.7235647   0.54610642   -19.395648   -10.368407   0.39246111     -18.9819    1.3240037   0.71294238   -9.4200484    -10.58173   0.23935186   -8.9857917            0            0            0   -1.0727984   0.37774687   -24.755408 
    8800    24.229687    5867.6399    5813.7993    1099.5645    823.59122    1.6523623   0.54771584   -19.357993   -10.367558   0.51214179   -19.078493    1.2717798   0.68547301   -9.2803999   -10.512916   0.39338033   -9.0751777            0            0            0   -1.0755693   0.41685457    -24.76094 
    8900    24.229687    5581.8291    5579.5661    -633.4757    840.76691    1.6379616   0.56258994   -19.266844   -10.404228    0.6255132   -19.173927    1.3075876   0.71969458   -9.2375271   -10.534317   0.53943102   -9.2111443            0            0            0   -1.0783401   0.45596227   -24.766471 
    9000    24.229687    4892.9155     4653.275    23.232489    821.49237    1.6359108   0.62539447   -19.232549   -10.426612   0.63465256   -19.194099    1.2826033   0.79442874   -9.2071107   -10.564534   0.56299447    -9.218716            0            0            0    -1.081111   0.49506997   -24.772003 
    9100    24.229687    5132.7269    5865.7561    1047.3284    824.93035      1.65381   0.70302353   -19.323778   -10.458191   0.67587649   -19.115832    1.3118771   0.97563969   -9.2781085   -10.627511    0.6107696    -9.141417            0            0            0   -1.0838819   0.53417767   -24.777534 
    9200    24.229687    5213.6132    5296.8337   -1098.9639    830.08652    1.6226273   0.80229521   -19.404988   -10.455878   0.72052677   -19.084939    1.1995426    1.0966282     -9.32923   -10.585744   0.70669528   -9.0597459            0            0            0   -1.0866527   0.57328537   -24.783065 
    9300    24.229687    5068.1004    4599.1783   -192.60792    820.00577    1.6193123   0.81434772   -19.372468   -10.466162   0.79019561   -19.021393      1.22647    1.1036868   -9.3100176   -10.661957   0.86684206   -9.0187517            0            0            0   -1.0894236   0.61239307   -24.788597 
    9400    24.229687    5435.3362    5350.8319   -801.83712    822.66084    1.6104619   0.84159806   -19.387724   -10.470275   0.89137288   -19.057223     1.181468    1.1463252   -9.4485773   -10.739549   0.97169308   -9.0163181            0            0            0   -1.0921945   0.65150077   -24.794128 
    9500    24.229687    4669.2421    5265.9214    1024.0507    813.08428    1.5957913   0.91305386   -19.356214   -10.484935   0.89959355   -19.135681    1.0837513    1.2638023   -9.3619199   -10.784129   0.94325145    -9.091149            0            0            0   -1.0949653   0.69060847    -24.79966 
    9600    24.229687    6007.9573    6617.4267    444.81186    803.82482    1.5661588    1.0046116   -19.330063   -10.451026   0.93765987   -19.137193   0.98098013    1.3180102   -9.3283103   -10.806523   0.98391412   -9.1772996            0            0            0   -1.0977362   0.72971617   -24.805191 
    9700    24.229687    5740.0285    5567.8063    176.76083    836.65626    1.6089343    0.9951412   -19.402976   -10.499661    0.9416981   -19.148971   0.99089829     1.317406   -9.3367454   -10.856728    1.0132492    -9.210178            0            0            0   -1.1005071   0.76882387   -24.810723 
    9800    24.229687    6733.9244    6866.3518    1020.5849    832.02703    1.5772007    1.0185422   -19.386451   -10.507256    1.0328431   -19.129628   0.98939889    1.3487692    -9.382355   -10.882331    1.1154457   -9.1376903            0            0            0   -1.1032779   0.80793158   -24.816254 
    9900    24.229687    5756.2312    4705.9122   -1172.7373    858.60355    1.5794856   0.99173704   -19.378678   -10.536329    1.0141051    -19.15265    1.0186221    1.3652467   -9.4077405   -10.912339    1.0953901   -9.0514353            0            0            0   -1.1060488   0.84703928   -24.821785 
   10000    24.229687     4608.519    6173.7126   -3.8216278    826.02601    1.5078746    1.0719772   -19.369837   -10.518757    1.0619134   -19.107981   0.98090291    1.4324462   -9.3913573   -10.829837    1.0931316   -9.0714225            0            0            0   -1.1088197   0.88614698   -24.827317 
   10100    24.229687    5135.3654    5248.3427    31.332397     813.3995    1.5456986    1.1021869   -19.338475    -10.54208    1.0395428   -19.163642    1.0426989    1.4062367   -9.2666029   -10.809245    1.0392227   -9.1836436            0            0            0   -1.1115906   0.92525468   -24.832848 
   10200    24.229687    5441.0517    5604.1484    -318.0493    818.18503    1.5183412    1.1146392   -19.346087   -10.525221    1.1275569   -19.183846    1.0657086    1.3212421   -9.2504565   -10.802156    1.0592811   -9.1726471            0            0            0   -1.1143614   0.96436238    -24.83838 
   10300    24.229687    5095.8561    4630.6443   -1510.2589    825.27488    1.5528997    1.1158695   -19.396478   -10.542496    1.1414493   -19.136093    1.0962262    1.2648311    -9.304868   -10.740446    1.0357065   -9.0685829            0            0            0   -1.1171323    1.0034701   -24.843911 
   10400    24.229687     4931.862    4828.5722   -147.34212    819.59726    1.5640381    1.2170804    -19.44256   -10.507958    1.1496819   -19.077647    1.1425241    1.3594403   -9.4559844   -10.760494     1.028979   -8.9869245            0            0            0   -1.1199032    1.0425778   -24.849442 
   10500    24.229687     5904.764    6020.6044   -408.96706    830.61982    1.5945813    1.1464799   -19.438169   -10.498136    1.1750267   -19.129016    1.1310877    1.3250668   -9.4642503   -10.709092    1.0087173   -9.0517652            0            0            0    -1.122674    1.0816855   -24.854974 
   10600    24.229687    6359.7061    6055.8075    982.39969    806.88187    1.6016687    1.2088326   -19.444397   -10.448697    1.1833657   -19.123641    1.1518315    1.4255001   -9.4241969   -10.711038    1.0369553   -9.1713848            0            0            0   -1.1254449    1.1207932   -24.860505 
   10700    24.229687    5904.3727    5531.0191    915.34837    822.34303     1.647694    1.2712253   -19.473415   -10.452975    1.2346138   -19.174935    1.1801621    1.3697424   -9.4108063   -10.687272    1.1447146   -9.2345568            0            0            0   -1.1282158    1.1599009   -24.866037 
   10800    24.229687    5923.4298    6331.4197    1067.1919    820.22623    1.6039892     1.292856   -19.492108   -10.411418    1.3131151   -19.201159    1.1411584    1.3870014   -9.4994855   -10.638756    1.1925708   -9.2292081            0            0            0   -1.1309866    1.1990086   -24.871568 
   10900    24.229687    5478.7062    6195.2939    724.74325    815.76887    1.6323097    1.3530735   -19.430704   -10.488797    1.3357493   -19.140619     1.171887    1.5286417   -9.4850303   -10.673173    1.1567883   -9.0523085            0            0            0   -1.1337575    1.2381163     -24.8771 
   11000    24.229687    6082.6921    5398.3436    302.00193    815.32751    1.5696566    1.4473196   -19.479473   -10.454979    1.4331575   -19.153391    1.2127384     1.562718   -9.4530195   -10.647433    1.2871524    -9.066574            0            0            0   -1.1365284     1.277224   -24.882631 
   11100    24.229687    5493.5394    5023.4259   -1252.1465    827.08127    1.5547537    1.4462694   -19.472249   -10.521407    1.3844712   -19.155378    1.1815977    1.5877554   -9.4282607   -10.627468    1.3016206   -9.1214033            0            0            0   -1.1392992    1.3163317   -24.888162 
   11200    24.229687     4879.088    4391.5675    -2294.579    839.37692    1.5321177    1.5502987   -19.439958   -10.523655    1.5236607   -19.126069     1.176452    1.8194945    -9.337311   -10.636242    1.4256369   -9.0909954            0            0            0   -1.1420701    1.3554394   -24.893694 
   11300    24.229687    4965.4122    5253.7888   -570.20948    794.52145    1.5746995    1.5157452   -19.453472   -10.570192    1.5338368   -19.165916    1.2067893    1.7911573   -9.3796082   -10.720821    1.5581519   -9.0870458            0            0            0    -1.144841    1.3945471   -24.899225 
   11400    24.229687    5715.0418     5104.405    422.37225    849.26479    1.5166958    1.5983504   -19.510114   -10.497415    1.6007331   -19.188839    1.1002058    1.9095692   -9.4969914   -10.679794    1.6917678    -9.114621            0            0            0   -1.1476119    1.4336548   -24.904757 
   11500    24.229687    5943.6049    5544.0222   -686.43125    837.74238    1.5664147    1.6669573   -19.455789   -10.542224    1.6320057   -19.213154    1.1001366    2.0066481   -9.4363057   -10.835709    1.6917538   -9.1592275            0            0            0   -1.1503827    1.4727625   -24.910288 
   11600    24.229687    7248.2971    6572.7793    1729.2593    827.07617    1.5527533    1.7430354   -19.487585   -10.502648    1.6957079   -19.234108    1.0233673    2.1179221   -9.4748604   -10.827863    1.6642713   -9.2339335            0            0            0   -1.1531536    1.5118702   -24.915819 
   11700    24.229687    5643.6913    5883.4022    204.24155    833.07659    1.5586756    1.7779648   -19.539045   -10.526757    1.7677433   -19.251727   0.94761768    2.0570871   -9.5456822   -10.887738    1.7871362   -9.2979116            0            0            0   -1.1559245    1.5509779   -24.921351 
   11800    24.229687    6538.3367    5719.0683    946.89161    823.36249    1.5265138    1.8096476   -19.525313   -10.548861    1.8010964    -19.18418    0.9476885    2.0495784   -9.5207468   -10.952877    1.8267485   -9.1789652            0            0            0   -1.1586953    1.5900856   -24.926882 
   11900    24.229687    5124.9493    5338.0342   -104.11418    836.68417    1.5323217    1.8537078   -19.525619   -10.542324    1.8062456   -19.204745   0.95736447    2.1406336    -9.489111   -10.936701    1.8088542   -9.1525819            0            0            0   -1.1614662    1.6291933   -24.932414 
   12000    24.229687    5612.2497    5388.3535   -402.30101    820.49731    1.5196336    1.8636561   -19.545232   -10.562517    1.8691079   -19.210106   0.96856613    2.1459277   -9.4984363    -10.93026    1.8966488   -9.1621104            0            0            0   -1.1642371     1.668301   -24.937945 
   12100    24.229687    5061.6341    5559.2006   -1011.0617    823.59249    1.4752271     1.809935   -19.432639   -10.582988    1.8469982   -19.264793   0.90880264    2.1701122   -9.3528241   -10.878853    1.8895203   -9.1789915            0            0            0   -1.1670079    1.7074087   -24.943477 
   12200    24.229687    4418.0523    4628.6588   -681.42742    822.11486    1.4669083    1.9309261     -19.4604   -10.605081    1.8643082   -19.281893   0.91902799    2.2468499   -9.3847004   -10.900835    1.9105899   -9.2438085            0            0            0   -1.1697788    1.7465164   -24.949008 
   12300    24.229687    4973.7186    5634.4619   -340.82421    808.24384    1.4759006    1.9182915   -19.487423   -10.598127    1.8697001   -19.253612   0.95664464    2.1646084    -9.466987   -10.877464    1.8812194   -9.2452903            0            0            0   -1.1725497    1.7856241   -24.954539 
   12400    24.229687    6007.1922    6273.7327    1512.8248    801.45104    1.5171573    1.9293297   -19.594557   -10.615814     1.983019   -19.198923    1.0303541     2.103079   -9.6107948   -10.938764    1.9257396   -9.1700863            0            0            0   -1.1753205    1.8247318   -24.960071 
   12500    24.229687    6156.4343     5510.187     217.5518     820.4662    1.5092694    1.9915274   -19.578855   -10.557255    1.9779232   -19.169539    0.9889567    2.1595973   -9.6025923   -10.861786    1.8588632   -9.1405347            0            0            0   -1.1780914    1.8638395   -24.965602 
   12600    24.229687    6418.6207    6027.5944    713.55595    842.29099    1.5751223    2.0668106   -19.555582   -10.562717    1.9983411   -19.312207    1.1017589    2.1765977   -9.6044223   -10.851784    1.8150352   -9.2767946            0            0            0   -1.1808623    1.9029472   -24.971134 
   12700    24.229687    6584.0967    5966.7636    1154.7581    839.41922    1.5121766    2.0636955   -19.474642   -10.493229    2.0570782   -19.393577   0.98502337     2.191355    -9.468469   -10.767069    1.9043341   -9.4559518            0            0            0   -1.1836332    1.9420549   -24.976665 
   12800    24.229687    6279.6663    5370.0138   -80.109646    833.67839    1.5810287    2.1045498   -19.492897   -10.539598    2.1325329   -19.322341    1.1300258    2.2304016   -9.4422506   -10.848783    2.0123404   -9.3279638            0            0            0    -1.186404    1.9811626   -24.982197 
   12900    24.229687    5449.8748    5511.7199    5.6329365    812.54319    1.5514687    2.1676328   -19.569003   -10.509193    2.0965615   -19.212476    1.1373481     2.334271   -9.5566978   -10.751067    1.9910864   -9.2430415            0            0            0   -1.1891749    2.0202703   -24.987728 
   13000    24.229687    4455.5389     5212.969   -821.48853    833.99362    1.5684283    2.2289804   -19.621968   -10.516271    2.1639957   -19.252899    1.1878537    2.3768809   -9.5732627    -10.67286     2.078374   -9.2488207            0            0            0   -1.1919458     2.059378   -24.993259 
   13100    24.229687    4477.2396    4605.1779   -992.52496    864.86319     1.532992    2.2364361   -19.550852   -10.538588    2.2239276   -19.257215     1.158403    2.4397632   -9.5027629   -10.646279    2.1436879   -9.1746042            0            0            0   -1.1947166    2.0984857   -24.998791 
   13200    24.229687    5650.9644    4920.8177    -204.9405    809.44492    1.5059269    2.2919498   -19.524044   -10.558811    2.2839772   -19.299313    1.1812875      2.49286   -9.5458527   -10.653849    2.2209738   -9.2152078            0            0            0   -1.1974875    2.1375934   -25.004322 
   13300    24.229687    5402.8836    5563.4052   -306.34619    802.59304    1.5044856    2.2835784   -19.545384   -10.585648    2.3316952   -19.282899    1.1505644    2.5408974   -9.5312302   -10.683408    2.2701317   -9.2755961            0            0            0   -1.2002584    2.1767011   -25.009854 
   13400    24.229687    5018.7269     5747.315     272.5262    828.53441    1.5054297    2.3789332    -19.59183   -10.578583    2.3727405   -19.294266    1.1586589    2.6891696   -9.5585716   -10.759182    2.3535594   -9.3584802            0            0            0   -1.2030292    2.2158088   -25.015385 
   13500    24.229687      6018.33    5349.8414    543.34438    826.90787    1.5191928    2.4223022   -19.621256   -10.577178    2.3936228   -19.288151    1.0674882    2.6978624   -9.5813059   -10.767664     2.435232   -9.2900128            0            0            0   -1.2058001    2.2549165   -25.020916 
   13600    24.229687    5536.3036    5106.9028    732.77366     829.0682    1.5156866    2.4067364   -19.569441    -10.57115    2.4182995     -19.3156    1.0189107     2.671995   -9.5830077   -10.847741    2.4672935   -9.2047464            0            0            0    -1.208571    2.2940242   -25.026448 
   13700    24.229687    5390.0598    5483.9731    47.710226    821.80734    1.4851845    2.5096728   -19.582049   -10.565609     2.456163   -19.335673   0.93440006    2.7735669   -9.6663465   -10.893867    2.4447999   -9.2667538            0            0            0   -1.2113418    2.3331319   -25.031979 
   13800    24.229687    5784.9083    5622.1687    371.60354    818.10888    1.4943208     2.563024    -19.55528   -10.596581    2.5299231   -19.307179   0.92162661    2.8078708   -9.4795431   -10.976742    2.4650197   -9.3006456            0            0            0   -1.2141127    2.3722396   -25.037511 
   13900    24.229687    4970.2803    5093.4281   -358.92492    821.05409    1.4883098    2.5716468   -19.579287   -10.605012    2.6161011   -19.355258   0.90270402    2.7644119   -9.4787855   -10.945994     2.575194   -9.3474265            0            0            0   -1.2168836    2.4113473   -25.043042 
   14000    24.229687     4706.024    6011.4183   -932.73912    824.06216    1.4719802    2.6653616   -19.622317   -10.656813    2.6396433   -19.317026   0.90658992    2.7429724   -9.5766418   -11.017876    2.5454253   -9.2924608            0            0            0   -1.2196545     2.450455   -25.048574 
   14100    24.229687    4987.0269    5229.8352   -865.06883    807.14676    1.4201537    2.6904375   -19.609989   -10.631617    2.6323108   -19.309608   0.88023874    2.9233103    -9.663685   -10.968251    2.4988716    -9.216297            0            0            0   -1.2224253    2.4895627   -25.054105 
   14200    24.229687    5798.0064    5997.9323   -423.56885    810.10611    1.4391823    2.6920056   -19.627382   -10.664834    2.6505399   -19.323893   0.94182088    2.9148787   -9.6190562   -11.001196    2.5528937   -9.2377979            0            0            0   -1.2251962    2.5286704   -25.059636 
   14300    24.229687    5156.3058     5843.291   -1049.7461    827.94649    1.4032517     2.623409   -19.636028   -10.673442     2.680271   -19.382111   0.90494219    2.8305366   -9.6767126    -10.95847    2.6947927   -9.4074229            0            0            0   -1.2279671    2.5677781   -25.065168 
   14400    24.229687    6415.0233    6942.3257    1085.1497     838.8558    1.4289635    2.7440231   -19.608459   -10.672838    2.6680041   -19.391105   0.95249904    3.0435994    -9.575463   -10.949386    2.7020254   -9.3931906            0            0            0   -1.2307379    2.6068858   -25.070699 
   14500    24.229687    6149.4763    7213.1304    1070.4788    844.51795    1.4048967    2.7653883    -19.66256    -10.66385    2.6725701   -19.389446   0.95114408    3.1090863   -9.7096376   -10.908441    2.6671161   -9.4425109            0            0            0   -1.2335088    2.6459935   -25.076231 
   14600    24.229687    5111.2642    5887.9635    639.82384    835.79905     1.470748    2.8090347   -19.675485   -10.653551    2.8161428   -19.334282    1.0037351    3.0651652   -9.7240743    -10.88486    2.7161484   -9.2979459            0            0            0   -1.2362797    2.6851012   -25.081762 
   14700    24.229687    5519.0506    4899.1104   -163.81582    849.50445     1.446511    2.8319375   -19.654908   -10.607621    2.8908338   -19.341983   0.97682479    2.9247763   -9.6555171   -10.874749    2.7605497   -9.2552916            0            0            0   -1.2390505    2.7242089   -25.087293 
   14800    24.229687    5769.2493    6315.6369   -463.90078    808.84622    1.4743857     3.011185   -19.677553   -10.601605    2.8937239   -19.390876   0.97945866    3.0621657   -9.6357387   -10.873278    2.7717623   -9.3748633            0            0            0   -1.2418214    2.7633166   -25.092825 
   14900    24.229687    4352.4207    5406.8983    -2115.857    820.49889    1.5227808    3.0325886   -19.599935   -10.597821      2.94592    -19.33151    1.0067365    3.1836841   -9.5274427   -10.896083    2.7215373    -9.290203            0            0            0   -1.2445923    2.8024243   -25.098356 
   15000    24.229687    5139.8846    5676.0811   -1162.0311    810.96109    1.5197023    3.0174538   -19.645552   -10.562664    3.0578081   -19.358551   0.99819908    3.2056873   -9.6217445   -10.902065    2.8811093   -9.3632786            0            0            0   -1.2473631     2.841532   -25.103888 
   15100    24.229687    5935.3776    6516.6392    -93.82122    792.78878    1.5216223    3.0251584   -19.649557   -10.594263    3.0239092   -19.361842    1.0044076    3.2056588   -9.6153393   -10.891125    3.0423309   -9.3366124            0            0            0    -1.250134    2.8806397   -25.109419 
   15200    24.229687     5472.836    5891.6253    1282.2284    829.93585    1.4588799    3.1054599   -19.668456   -10.591076    3.0103196   -19.427753   0.99104082    3.3412497   -9.7136882    -10.82267    3.0502237    -9.416062            0            0            0   -1.2529049    2.9197474   -25.114951 
   15300    24.229687    5894.1156    5563.0652     1512.635    817.28094    1.4591912    3.1516369   -19.674781   -10.627822    3.1040746   -19.427889    1.0535095    3.4980526   -9.7129568   -10.813716    3.1093892   -9.4064284            0            0            0   -1.2556758    2.9588551   -25.120482 
   15400    24.229687    5952.2174    5956.9241    1814.8128     834.7459    1.4202402    3.1296645   -19.742622   -10.618731    3.2089765     -19.3943    1.0435088    3.4688042   -9.7692216   -10.789017    3.2297821   -9.4067234            0            0            0   -1.2584466    2.9979628   -25.126013 
   15500    24.229687     6775.298    7342.1423    1510.1123    812.49214     1.439575    3.2190892   -19.691584   -10.662198    3.2117309   -19.384771    1.0769374    3.4917785   -9.7512521   -10.804458    3.3131182    -9.511128            0            0            0   -1.2612175    3.0370705   -25.131545 
   15600    24.229687    5663.4317    4648.0281   -709.16527    837.51564    1.4405081    3.2556115    -19.71837   -10.638789     3.196802   -19.413441    1.0505668    3.5471759   -9.7010224   -10.825922     3.232496   -9.4095268            0            0            0   -1.2639884    3.0761782   -25.137076 
   15700    24.229687    6389.8944    5487.4733   -908.49861    795.42489    1.4406735    3.2878314   -19.717306   -10.599676    3.2943546   -19.420934    1.0245132    3.6606352   -9.6935245    -10.76763    3.2421935   -9.3245279            0            0            0   -1.2667592    3.1152859   -25.142608 
   15800    24.229687    4960.3124    5409.8206      -1685.9    809.24344    1.4608171    3.3205243   -19.685823    -10.61636    3.2757039   -19.411129     1.005231     3.542793   -9.5937227   -10.871127    3.2308212   -9.3055025            0            0            0   -1.2695301    3.1543936   -25.148139 
   15900    24.229687     6000.752    5606.6194   -229.29167    784.46573    1.4646602    3.4098766   -19.706009    -10.63224    3.3349089   -19.464542    0.9560505    3.5688417   -9.5764869   -10.860033     3.341236     -9.45284            0            0            0    -1.272301    3.1935013   -25.153671 
   16000    24.229687    4649.8255    5235.8157   -1150.2293    833.82309    1.4748125    3.4311667   -19.660958   -10.595335    3.4197168   -19.493186   0.99176293    3.6174347   -9.6587277    -10.89573    3.2763301   -9.5525034            0            0            0   -1.2750718     3.232609   -25.159202 
   16100    24.229687    5921.5791    5262.5939    967.80006    829.75438    1.4750689    3.4319217   -19.680692   -10.610344    3.4474254   -19.484102   0.92388131    3.6057139   -9.6726315   -10.940947     3.296081   -9.4479286            0            0            0   -1.2778427    3.2717167   -25.164733 
   16200    24.229687     6785.163    6599.5795    1992.0722    807.31815    1.4445941     3.526311   -19.771739   -10.667847    3.4536098   -19.419793    0.9302635    3.5870506   -9.8221183   -11.033223    3.3052798   -9.4017971            0            0            0   -1.2806136    3.3108244   -25.170265 
   16300    24.229687    6936.4444    6499.6739     1287.371    834.86618    1.4424236    3.5238834   -19.910408   -10.662326    3.4732359    -19.42232   0.85523522    3.6711069   -9.9583643   -10.976881    3.4080892   -9.4211623            0            0            0   -1.2833844    3.3499321   -25.175796 
   16400    24.229687     6740.218     6103.331    681.84414    846.39392    1.4145556    3.5151585   -19.785419   -10.702533    3.5454632    -19.39745   0.89731875    3.7279615    -9.818343   -11.012756    3.4419986   -9.4642903            0            0            0   -1.2861553    3.3890398   -25.181328 
   16500    24.229687    6442.1849    5748.8419    594.33606    824.63891    1.3687208    3.5014834   -19.715935   -10.705272    3.5507233   -19.512193     0.832964    3.7908099   -9.6991615   -11.014037    3.5034343   -9.5691012            0            0            0   -1.2889262    3.4281475   -25.186859 
   16600    24.229687    6048.4517    6219.8431    418.22409    804.64513    1.3555867    3.6624102   -19.719752   -10.706512    3.5245856   -19.506125   0.88159794    3.9349828   -9.6609726   -11.017708     3.538539   -9.4773876            0            0            0   -1.2916971    3.4672552    -25.19239 
   16700    24.229687    4792.0286    5156.3716   -715.36775    811.39167    1.3429342    3.6092242   -19.675592   -10.732926    3.5898147   -19.454016   0.86771183      3.88343   -9.6634288    -11.00212    3.5553817   -9.4327474            0            0            0   -1.2944679    3.5063629   -25.197922 
   16800    24.229687    4652.9988    4525.6394    -567.1022    824.54786    1.3184521    3.6669753   -19.807851   -10.724249    3.6790683   -19.452343   0.83832804     3.955181   -9.7295653   -10.978397    3.6509326   -9.3361742            0            0            0   -1.2972388    3.5454706   -25.203453 
   16900    24.229687    5380.9927    5315.4345   -826.18658    834.41896    1.3483447    3.7164444   -19.822729   -10.746766    3.7223201   -19.453511   0.86250575    3.9198651   -9.7863134   -11.001972    3.6302185   -9.4002892            0            0            0   -1.3000097    3.5845783   -25.208985 
   17000    24.229687    5426.5308     5497.939    852.73888    804.75758    1.3702319    3.7779465   -19.707833     -10.7167     3.755116   -19.468859   0.85127202    3.9625332   -9.6595154   -10.980698    3.7256542   -9.4362678            0            0            0   -1.3027805     3.623686   -25.214516 
   17100    24.229687    5751.4725    5560.5733   -262.50306    826.31452    1.3888106    3.8437574   -19.773391   -10.690528    3.8188376   -19.554961   0.86958694    4.0001446   -9.7978333   -11.022344    3.6983929   -9.5526172            0            0            0   -1.3055514    3.6627937   -25.220048 
   17200    24.229687    6746.2146    6155.6193    1033.4586    814.25908    1.3928168    3.8555123    -19.83266    -10.69959    3.8646261   -19.494277   0.86297127    4.0608563   -9.8021474   -11.011172    3.7633362   -9.4412869            0            0            0   -1.3083223    3.7019014   -25.225579 
   17300    24.229687    6658.8068    7191.5209    1842.2684    818.82854    1.4174574    3.9387721   -19.891346   -10.670416    3.8848182   -19.471978   0.89818124    4.0887403   -9.9751485   -11.009963    3.7881179   -9.5119026            0            0            0   -1.3110931    3.7410091    -25.23111 
   17400    24.229687    6808.3541    6238.8746    236.92167    817.96514    1.4180485    3.9420403   -19.881039   -10.659085    3.9325911   -19.480592   0.91997412    4.1612382   -9.9279989   -10.945293    3.9032722   -9.5108068            0            0            0    -1.313864    3.7801168   -25.236642 
   17500    24.229687    5724.7568    5650.6663    40.942462     839.3102    1.4286185    3.9524323   -19.789852   -10.654375    3.9754697   -19.544391   0.96414715    4.2108542   -9.7789376   -10.902932    3.9027565   -9.5358511            0            0            0   -1.3166349    3.8192245   -25.242173 
   17600    24.229687    6183.7587    5650.4043   -506.43739    830.62713    1.3926319    3.9539366   -19.731497    -10.63263     3.993228   -19.604903    0.9354339    4.2220836     -9.75916   -10.847461    3.9745582   -9.6295136            0            0            0   -1.3194057    3.8583322   -25.247705 
   17700    24.229687    4216.9634    5143.9335   -935.00999    815.96835    1.3957927    4.0440203   -19.772697   -10.641997    3.9594895    -19.55999   0.98441523    4.3407804   -9.7602569   -10.823773    4.0276212   -9.5245332            0            0            0   -1.3221766    3.8974399   -25.253236 
   17800    24.229687    5420.7186    5217.1111   -529.88352    809.99014    1.4260612    4.1137918   -19.869159   -10.692556    3.9669883   -19.544037    1.0539539    4.4651876   -9.8028695   -10.818361     4.009629   -9.5514452            0            0            0   -1.3249475    3.9365476   -25.258767 
   17900    24.229687    5715.2594    5887.2525    768.39247    804.05976     1.373749    4.0861719   -19.916508   -10.704016    4.0994057   -19.487175    1.0116842     4.373813    -9.905296   -10.869013    4.1073077     -9.41168            0            0            0   -1.3277184    3.9756553   -25.264299 
   18000    24.229687    5981.9388    5710.9433   -772.39857    833.75802    1.4050068    4.0894833   -19.831156   -10.717624    4.1904124   -19.457421    1.0362916    4.3372079    -9.850435     -10.9021    4.2580449   -9.4413431            0            0            0   -1.3304892     4.014763    -25.26983 
   18100    24.229687    6094.9463     5551.348    634.98355    827.85484    1.3624118    4.2416263   -19.832755   -10.666872    4.2101493   -19.634409   0.96618101    4.4860896   -9.8677705   -10.865216    4.1483311   -9.6328016            0            0            0   -1.3332601    4.0538707   -25.275362 
   18200    24.229687    6656.6083    6827.1425    1061.7899    811.03414    1.4269429    4.3339867   -19.788908   -10.688608    4.1941398   -19.627224   0.98868453    4.5684403   -9.7533064   -10.877514    4.0471082   -9.6134884            0            0            0    -1.336031    4.0929784   -25.280893 
   18300    24.229687    5626.0987    5733.9146    734.66562    828.13382    1.3966089    4.3201809   -19.811718    -10.66533    4.3735774   -19.665426   0.98132843    4.4752301    -9.802183   -10.928611    4.2956488   -9.7055607            0            0            0   -1.3388018    4.1320861   -25.286425 
   18400    24.229687    5627.8383     6363.928    1013.9056    803.11241    1.4322365    4.3031777   -19.865143   -10.695249    4.3941133   -19.606964   0.91777223    4.4553852   -9.7980063   -10.970874    4.3345403   -9.6201609            0            0            0   -1.3415727    4.1711938   -25.291956 
   18500    24.229687    5294.2662    5789.7857   -186.21083    818.25686    1.3837944    4.4725357    -19.92065   -10.664058    4.3472414    -19.48567   0.89958523    4.7025677   -9.9375393   -10.977515    4.2492344   -9.4436742            0            0            0   -1.3443436    4.2103015   -25.297487 
   18600    24.229687      5431.57    5245.5964   -937.17688    827.40068    1.3458112    4.4703454   -19.943381   -10.689465    4.3438454   -19.449788   0.82397008    4.7210096   -9.9700002   -10.957556    4.2767363   -9.4169858            0            0            0   -1.3471144    4.2494092   -25.303019 
   18700    24.229687    5243.2733    5244.1967    -347.3298    806.73466    1.3382749    4.4138261   -19.900471   -10.723093    4.4749007     -19.5896   0.86806107    4.6494435   -9.9006889   -11.006503    4.4927046   -9.5336876            0            0            0   -1.3498853    4.2885169    -25.30855 
   18800    24.229687    4853.7199    4633.6289   -1188.3627    831.57513    1.3399532    4.4337103   -19.790713   -10.779286    4.4832878   -19.692442   0.89771846    4.7077846   -9.7216827   -11.013272     4.486933   -9.7213701            0            0            0   -1.3526562    4.3276246   -25.314082 
   18900    24.229687    5928.4023    5200.2281   -53.302794    816.78426    1.3081058    4.5951382   -19.804295   -10.765234    4.4620495   -19.695972   0.84393575    4.9061663   -9.7183267   -10.962614    4.4473693   -9.7079776            0            0            0    -1.355427    4.3667323   -25.319613 
   19000    24.229687    5755.0958    5820.4888    572.20902    819.78149    1.3508641    4.5468148   -19.913742   -10.806192     4.552063   -19.609436    0.8851418    4.8323923   -9.9194958   -11.071303    4.5816859   -9.6039594            0            0            0   -1.3581979      4.40584   -25.325145 
   19100    24.229687    6430.4008    6573.0138    881.02539    810.47863    1.3050508    4.5353502   -19.948935   -10.749214    4.6989201   -19.602155    0.7603235    4.8221832   -10.058615   -11.039839    4.7309252   -9.5935876            0            0            0   -1.3609688    4.4449477   -25.330676 
   19200    24.229687    6948.5179    5683.4595    683.99871    827.82553    1.3686857    4.6907584   -19.932103   -10.777869    4.6318684   -19.683427   0.80209508    4.9242398   -9.9406053   -11.141513    4.6087805   -9.7510571            0            0            0   -1.3637397    4.4840554   -25.336207 
   19300    24.229687    6593.1389    5959.6991    841.05636    837.80958    1.3216709    4.7919835   -19.877596   -10.694583    4.6382858   -19.644585   0.74293635    5.0384647   -9.8675276      -11.091    4.6157465   -9.7127071            0            0            0   -1.3665105    4.5231631   -25.341739 
   19400    24.229687    5370.0317    6192.1345   -14.995545    832.16022    1.3829419    4.7545476   -19.914115   -10.746819    4.7923692   -19.626936   0.80160276    4.9772794   -9.9508124   -11.097848    4.7193969   -9.6338124            0            0            0   -1.3692814    4.5622708    -25.34727 
   19500    24.229687     5796.761    5762.9451     653.8438    828.21909    1.3339315    4.7347013   -19.945589   -10.714655    4.8567821   -19.607946   0.80907606    4.9734633   -9.9529055   -11.045148    4.7840912    -9.564545            0            0            0   -1.3720523    4.6013785   -25.352802 
   19600    24.229687    5120.3336    4548.1015   -923.69186    811.96934     1.384693    4.8455318    -19.88773   -10.758628    4.7864409   -19.579888   0.84812829    5.0601415   -9.8587033   -11.035427    4.7289813   -9.6111634            0            0            0   -1.3748231    4.6404862   -25.358333 
   19700    24.229687    4755.9101    4607.4284    -1359.733    835.03617    1.3147983    4.9103469   -19.951141   -10.725434    4.7496977   -19.629393   0.84725859    5.1705801   -9.8938223   -10.994495     4.769776   -9.6293475            0            0            0    -1.377594    4.6795939   -25.363864 
   19800    24.229687    4886.2941     4729.405   -1011.5271    839.01102    1.3653652     4.832867   -19.912093   -10.786357    4.8717598   -19.632433   0.93983304    5.1220824   -9.9043148   -11.017728     4.817323   -9.5750217            0            0            0   -1.3803649    4.7187016   -25.369396 
   19900    24.229687    6364.9597    5735.2811    780.37174    822.47922    1.2676659    4.8659849   -19.952988    -10.69315    4.8950651   -19.639923   0.86096438    5.1610401   -9.9976467   -10.879927    4.8982826   -9.6010525            0            0            0   -1.3831357    4.7578093   -25.374927 
   20000    24.229687    5926.3179    6096.4139   -103.45962    815.78324    1.3711233    4.9528559   -19.970377   -10.770575    4.8704572   -19.622808    0.9541074    5.1896025   -9.9872327   -10.946338    4.8326394   -9.6032164            0            0            0   -1.3859066     4.796917   -25.380459 
   20100    24.229687    6272.3115    6254.7164    777.21295    817.15293    1.3179661    4.9881147   -19.988457   -10.733461    4.8952336   -19.688732   0.88096381    5.2236447   -10.036908   -10.903692    4.9049841   -9.7592631            0            0            0   -1.3886775    4.8360247    -25.38599 
   20200    24.229687    6657.9493    6441.9459    1072.8205    830.39825    1.3518076    5.0073575   -19.986281   -10.778228    5.0152964   -19.717279   0.96215378    5.1858729   -10.015778   -10.998803    4.9301793   -9.7445094            0            0            0   -1.3914483    4.8751324   -25.391522 
   20300    24.229687    6910.2311    6648.2844    1253.5061    836.19216    1.3211547     5.032487   -19.958882    -10.71946    5.0634183   -19.717701   0.90286238    5.2445228   -9.9837882   -10.935562     4.979122   -9.7711108            0            0            0   -1.3942192    4.9142401   -25.397053 
   20400    24.229687    5332.6969    5429.7834     472.5486    833.48098    1.3301853    5.1229332   -19.958731   -10.700404    5.0112975    -19.66818   0.92521543     5.271442   -10.014603   -10.871989    4.9089954   -9.6577451            0            0            0   -1.3969901    4.9533478   -25.402584 
   20500    24.229687    5876.5239    5789.6648   -207.88606    822.80954    1.3433318    5.1636291   -19.993805    -10.76794    5.1385932   -19.691954    0.9135837    5.3395775   -10.060766   -10.972168    5.0182989   -9.7378252            0            0            0    -1.399761    4.9924555   -25.408116 
   20600    24.229687    4487.8599     5066.849   -791.65495    847.80594    1.3235192    5.1323182   -19.972736   -10.755497    5.2007563   -19.684088    0.8727516    5.3009975   -9.9553094   -10.985075     5.050412   -9.6590661            0            0            0   -1.4025318    5.0315632   -25.413647 
   20700    24.229687    5411.5057    5641.1131    8.3290639    778.06714    1.3364673    5.2649932   -19.953656   -10.777956    5.2045275   -19.669163   0.86894993    5.4273155   -9.8991154   -11.054281     5.128268   -9.6562501            0            0            0   -1.4053027    5.0706709   -25.419179 
   20800    24.229687    4371.2511    4379.2006   -711.46121    804.01552    1.2825623     5.301765    -19.96053   -10.773706    5.2066875   -19.709009   0.84091583    5.4864439   -9.8961647   -11.044886    5.1183659    -9.780297            0            0            0   -1.4080736    5.1097786    -25.42471 
   20900    24.229687     5555.085    5433.0145     -1518.04    803.64979    1.2784717    5.3386394   -19.980148   -10.796556      5.28585   -19.711804   0.78217465    5.5728059   -9.9337215   -11.038174    5.2040582   -9.7256115            0            0            0   -1.4108444    5.1488863   -25.430241 
   21000    24.229687    5456.3305    5075.4311   -437.20371    830.16711    1.2684939    5.3072005   -19.969247   -10.789859    5.3796886   -19.724239   0.78452561    5.5843571   -10.009408   -11.066667    5.2923404   -9.6752056            0            0            0   -1.4136153     5.187994   -25.435773 
   21100    24.229687    5881.4227    5945.4643    708.50428    828.78568    1.2609249    5.3671943   -19.963872   -10.800643    5.4138385   -19.762294   0.75934203    5.6122765   -10.062954   -11.086077    5.3812365   -9.7259406            0            0            0   -1.4163862    5.2271017   -25.441304 
   21200    24.229687    5798.2419    5953.2539    506.42915    827.07988    1.2755594     5.472107   -20.019689   -10.819615    5.3485499   -19.746944   0.77096428    5.7369852   -10.066831   -11.142537    5.3314864   -9.8114828            0            0            0    -1.419157    5.2662094   -25.446836 
   21300    24.229687    6799.4637    7370.7945    1314.3944     819.8607    1.2949778    5.5284561   -20.071702   -10.833277     5.421874   -19.756783   0.74914526    5.7843798   -10.071069   -11.145456    5.4055612   -9.8593562            0            0            0   -1.4219279    5.3053171   -25.452367 
   21400    24.229687      6504.27    6322.7561     380.5144    821.30784    1.2319153     5.398556   -20.029018    -10.80208    5.5444943   -19.754059   0.71135359    5.6320747   -10.107458   -11.088827    5.5328979   -9.8276588            0            0            0   -1.4246988    5.3444248   -25.457899 
   21500    24.229687    6878.1902    6381.1548    920.11572    806.48992    1.2940981    5.4688718   -20.032731   -10.832699    5.6473212   -19.719257   0.73632766    5.7049892     -10.1491   -11.091808    5.6267592   -9.7006553            0            0            0   -1.4274696    5.3835325    -25.46343 
   21600    24.229687    5472.5835    6969.8431    893.34472    818.67633    1.2426967    5.5780892   -20.022538   -10.785432    5.5231656   -19.749448   0.74272619    5.7756563   -10.018809   -11.115194     5.455413   -9.7418081            0            0            0   -1.4302405    5.4226402   -25.468961 
   21700    24.229687    4755.8581     5132.222   -674.73611    826.88438    1.2892254     5.724349   -20.020697   -10.826217    5.5562706   -19.723208   0.78571026    5.8611685   -9.9934012   -11.068349    5.4771729   -9.7740295            0            0            0   -1.4330114    5.4617479   -25.474493 
   21800    24.229687    4158.8656     4461.812   -1646.6939    805.73953     1.228673    5.6064331   -20.059331    -10.75449    5.6672329   -19.738444   0.77919031    5.7907226   -10.026643   -11.017934     5.567439   -9.7067336            0            0            0   -1.4357823    5.5008556   -25.480024 
   21900    24.229687    4606.2364    5602.8004   -995.63577    825.45261    1.3054006    5.6280032   -20.013829   -10.810165    5.7013432   -19.691347   0.87202454    5.8190399   -10.030349   -10.988572    5.5619224    -9.700648            0            0            0   -1.4385531    5.5399633   -25.485556 
   22000    24.229687    5039.0825    5357.8123   -560.79576    840.07858    1.3042657    5.7563823   -20.114601   -10.756764    5.6604693   -19.707026   0.90900662    5.9283148   -10.064841   -10.913115    5.5367453   -9.6374661            0            0            0    -1.441324     5.579071   -25.491087 
   22100    24.229687    6183.8772    5878.9405     1.462597    808.33131     1.291474    5.8003929   -20.034633   -10.795941    5.6893751   -19.735773   0.89855795    5.9871955   -10.093461   -10.975849    5.6263691   -9.7437203            0            0            0   -1.4440949    5.6181787   -25.496619 
   22200    24.229687    6627.3807    6727.6632    196.92225    785.97193    1.2418247    5.7403155   -20.034992   -10.745366    5.8116353   -19.823318   0.85968711     5.934881   -10.135528   -10.937312    5.7640562   -9.8573653            0            0            0   -1.4468657    5.6572864    -25.50215 
   22300    24.229687      7354.63    8297.1288    1848.0561    831.26711    1.3086599    5.7839903    -20.05154   -10.802401    5.8547537   -19.852054   0.89832461    6.0528146   -10.078672   -10.996449    5.7818557    -9.847948            0            0            0   -1.4496366    5.6963941   -25.507681 
   22400    24.229687    6369.2457    7393.9637     1554.439    827.97356    1.2782366    5.9020906   -20.078533   -10.790113    5.8406986     -19.7937   0.86351545    6.1804322   -10.135655   -11.017487    5.7909365   -9.8336526            0            0            0   -1.4524075    5.7355018   -25.513213 
   22500    24.229687    6073.1013     5521.479    581.04229    805.62306    1.2846386     5.961954   -20.135568   -10.830384    5.8557112   -19.769735   0.84310832    6.1850851   -10.202717   -11.017744    5.8940312   -9.8663017            0            0            0   -1.4551783    5.7746095   -25.518744 
   22600    24.229687    5907.8347    5720.8128   -508.13798    826.00214       1.2155    5.9779684   -20.132095   -10.798691    5.9871132   -19.767357   0.81003168    6.2133527   -10.095762   -11.012957    5.9774913   -9.7812707            0            0            0   -1.4579492    5.8137172   -25.524276 
   22700    24.229687    4931.4113    6445.6385    405.12098    809.49957    1.2352975    6.0720248    -20.04597   -10.843129    6.0704852    -19.80131   0.78209698    6.3442694   -10.031277   -11.051922      6.02694   -9.7818561            0            0            0   -1.4607201    5.8528249   -25.529807 
   22800    24.229687    4190.6114    4323.8794   -1864.1795    803.29006    1.2368025    6.0950692   -20.084613   -10.821643    6.1007835   -19.800081   0.76836807    6.3912192   -10.019961   -11.066257    6.0594094   -9.7058128            0            0            0   -1.4634909    5.8919326   -25.535338 
   22900    24.229687    4112.9595    4809.1671   -1073.0146     810.4316    1.2478366    6.1552497   -20.030105   -10.851709    6.1483663   -19.805441   0.77016514    6.4185164   -9.9965242   -11.098237    6.1566194   -9.7200322            0            0            0   -1.4662618    5.9310403    -25.54087 
   23000    24.229687    5004.0048    5210.9438   -1090.2093    814.01602    1.2536539    6.1889872   -20.049182   -10.833482    6.1969272   -19.789545   0.79862999    6.5393338   -9.9848339   -11.123643    6.2821857   -9.7824466            0            0            0   -1.4690327     5.970148   -25.546401 
   23100    24.229687    5081.1452     4217.431   -1113.8857    827.30189    1.2324079    6.2382598   -20.062524   -10.819107    6.2227471   -19.841067    0.7663906    6.5923904   -10.067614   -11.090598    6.2896184   -9.8216419            0            0            0   -1.4718035    6.0092557   -25.551933 
   23200    24.229687    6485.4279    5879.0057   -414.57166    825.38021    1.2169298    6.2618285   -20.158777   -10.834309    6.1965686   -19.837267   0.75104064    6.6564433    -10.21868   -11.116324    6.3169938   -9.8273078            0            0            0   -1.4745744    6.0483634   -25.557464 
   23300    24.229687    6863.9218     7418.316    1751.6442     857.0666    1.2311297    6.2837899   -20.201092   -10.861921    6.2494775   -19.824814   0.75332235    6.6261644   -10.193862   -11.104293    6.3681291   -9.8617446            0            0            0   -1.4773453    6.0874711   -25.562996 
   23400    24.229687    7238.1362     6568.138    1024.3832    835.90822    1.2000891    6.3182231   -20.205076   -10.839195    6.2976481   -19.854002   0.76796727    6.6904723   -10.271123    -11.04666    6.3774359   -9.9490498            0            0            0   -1.4801162    6.1265788   -25.568527 
   23500    24.229687    8423.4066    7589.3541    1914.8439    792.68918    1.2554977    6.3118039   -20.101412   -10.883168     6.307327   -19.912675   0.86306908    6.6070083   -10.204178   -11.072291    6.3492132   -9.9754678            0            0            0    -1.482887    6.1656865   -25.574058 
   23600    24.229687    6498.8539    6667.6789    2156.6586    838.50081    1.2135086    6.3773626   -20.071852   -10.839976    6.3540507   -19.978013   0.82458537    6.6658327   -10.119742   -11.037567    6.3501344   -9.9766099            0            0            0   -1.4856579    6.2047942    -25.57959 
   23700    24.229687    5054.9335    5748.1117   -737.69071    820.17046    1.2445589    6.3825484   -20.121408   -10.835181    6.3529438    -19.87051   0.86507528    6.5902547   -10.043212   -11.029343    6.2802573   -9.8516554            0            0            0   -1.4884288    6.2439019   -25.585121 
   23800    24.229687    3145.1807     3361.699   -2760.4275      828.412    1.2328088     6.420586   -20.145661   -10.806415    6.3841516   -19.797143   0.79769493    6.6182178   -10.030879    -10.98381    6.2824512   -9.7988396            0            0            0   -1.4911996    6.2830096   -25.590653 
   23900    24.229687    4903.9229    4681.6556   -1171.2651    814.36002    1.2729198    6.4440765   -20.126682   -10.820531    6.4599981    -19.84115   0.80663866    6.5462088   -10.045098   -11.067479    6.3452731   -9.7931644            0            0            0   -1.4939705    6.3221173   -25.596184 
   24000    24.229687    4545.8445    4849.2811     -1427.48    806.59467    1.2977405    6.4555236   -20.108704   -10.825008    6.4840692   -19.824327   0.87492599    6.5509863   -10.035025   -11.035216    6.3322531   -9.7109854            0            0            0   -1.4967414     6.361225   -25.601715 
   24100    24.229687    3863.0363    4696.2292   -1797.9706    814.94913    1.2424287    6.5437952   -20.103712   -10.844768     6.439031    -19.86077   0.87912059       6.6224    -10.13523   -11.023385    6.2171123   -9.7930305            0            0            0   -1.4995122    6.4003327   -25.607247 
[...]
  998900    24.229687    4802.0929    4633.8681   -1242.0934    819.13982   -25.768956    387.81565   -74.050297   -37.875191    387.74693   -73.831852   -26.306435    388.09804   -64.001839   -38.239972    387.66435   -63.792847            0            0            0   -28.509945     387.6222   -79.527522 
  999000    24.229687    4610.4684    4868.1363   -898.33941    811.91547   -25.814441    387.83042   -74.073483   -37.911168    387.81755   -73.791565   -26.428457    388.07555   -63.954614   -38.234188    387.75769   -63.669336            0            0            0   -28.512716     387.6613   -79.533053 
  999100    24.229687    4540.5457    3877.9769   -2270.7739    808.51744   -25.869376    387.88692   -74.060664   -37.967833    387.83889     -73.7837   -26.434201    388.08299   -63.957923   -38.387181    387.76428   -63.641355            0            0            0   -28.515487    387.70041   -79.538585 
  999200    24.229687    4339.0419     4152.455   -1138.6993     801.6618   -25.923594    387.92727   -74.074703   -38.000503    387.85192   -73.856988   -26.564536    388.12362   -63.976153   -38.418177     387.7069   -63.777385            0            0            0   -28.518258    387.73952   -79.544116 
  999300    24.229687    5579.9637    5583.7811   -647.03006    804.98998   -25.923633    387.96065   -74.084565   -38.043799    387.90702   -73.780875    -26.56245     388.1724    -63.98656   -38.494886    387.74103   -63.736276            0            0            0   -28.521029    387.77863   -79.549647 
  999400    24.229687    5841.5711    5876.2279    492.31427    822.97337   -25.964528    387.96692   -74.109594   -38.026396    387.90375   -73.816521   -26.654858    388.16009   -64.103437    -38.50919    387.77651   -63.776868            0            0            0   -28.523799    387.81774   -79.555179 
  999500    24.229687    6224.9311    6240.8645    1950.0869     827.5841   -25.904361    388.00023   -74.171351   -38.051753    387.89869    -73.92417   -26.596585    388.16432    -64.20873   -38.543115     387.7585   -63.922317            0            0            0    -28.52657    387.85684    -79.56071 
  999600    24.229687    6540.7615    6639.1223    907.16416    846.53011   -25.914689    387.98978   -74.133222   -38.003968    387.97271   -73.847637   -26.599234    388.21632    -64.14205   -38.501688    387.81095   -63.895224            0            0            0   -28.529341    387.89595   -79.566242 
  999700    24.229687     7104.602    6666.0131    2052.8764    837.78555   -25.915783    388.03795   -74.182695   -38.004183    387.94726   -73.883597   -26.605593    388.20574   -64.145738   -38.454414    387.78706   -63.961036            0            0            0   -28.532112    387.93506   -79.571773 
  999800    24.229687    5685.1094    5815.0843   -46.049036    845.71006   -25.919011    388.10178   -74.153525   -37.982287    388.02005   -73.815314   -26.546515    388.21681   -64.205509   -38.408432    387.87255   -63.791375            0            0            0   -28.534883    387.97417   -79.577305 
  999900    24.229687    5460.2088    5822.7886   -1135.3667    826.57355   -25.838572    388.10948   -74.145847   -37.963281    388.08907   -73.859577   -26.386694    388.22231   -64.108006   -38.356712    387.86582   -63.785483            0            0            0   -28.537654    388.01327   -79.582836 
 1000000    24.229687    4509.9967    4912.5444   -245.44328     826.2052   -25.844436    388.23828   -74.136664   -37.912215    388.08524   -73.883047   -26.311407    388.39232   -64.056388   -38.206644    387.84187   -63.838501            0            0            0   -28.540425    388.05238   -79.588367 
 1000100    24.229687    4972.8225     4851.203   -2007.2612    817.86165   -25.773628    388.29856   -74.084367   -37.902498    388.10912   -73.828476   -26.163178    388.43366   -63.957391   -38.099387    387.87722   -63.727265            0            0            0   -28.543196    388.09149   -79.593899 
 1000200    24.229687    5433.3644    5034.5235   -378.04257    815.15425   -25.806684    388.28356   -74.139752   -37.849008    388.23877   -73.893482   -26.121067    388.40977   -64.115164   -37.914431    388.07667   -63.830701            0            0            0   -28.545966     388.1306    -79.59943 
 1000300    24.229687    4278.0703    4844.3026    -1536.279    824.39355   -25.790828    388.29756   -74.178378   -37.838194    388.35762   -73.884217   -26.025711    388.48901   -64.158902   -37.854641    388.26029   -63.763924            0            0            0   -28.548737     388.1697   -79.604962 
 1000400    24.229687    6282.1292    4673.0227    79.498667    809.68076    -25.76274    388.40062   -74.198312   -37.857706    388.30452   -73.860387   -25.922093    388.62253   -64.180339   -37.860395    388.13733   -63.856119            0            0            0   -28.551508    388.20881   -79.610493 
 1000500    24.229687     7037.912    5550.8951     2006.532    830.86725   -25.765106    388.49192   -74.184965   -37.807634    388.33889   -73.941368   -26.000629    388.74734   -64.187322   -37.768054     388.3102   -63.954012            0            0            0   -28.554279    388.24792   -79.616024 
 1000600    24.229687    6741.6336    6052.0616    2442.8011    820.75029   -25.750886     388.4832   -74.191663   -37.817816    388.45993   -73.969438   -25.974611    388.74689   -64.234819   -37.847397    388.43862   -63.966822            0            0            0    -28.55705    388.28703   -79.621556 
 1000700    24.229687    6416.6821    5959.3471    1137.3061    824.69963   -25.757615    388.49223   -74.237239   -37.829011    388.51514   -73.922586   -26.016402     388.8406   -64.291353   -37.909962    388.54818   -63.949414            0            0            0   -28.559821    388.32614   -79.627087 
 1000800    24.229687    6362.2617    6299.0905    180.07033    841.53107   -25.785578    388.63851   -74.270147   -37.838758    388.43185   -73.899844   -26.110749    388.99041   -64.234776   -37.963093    388.42275   -63.859761            0            0            0   -28.562592    388.36524   -79.632619 
 1000900    24.229687    4894.3646    4733.9098   -1682.1246    853.90522   -25.803529    388.64034   -74.200928   -37.889242    388.52455   -73.894846   -26.177544    389.01471   -64.178294   -38.064567    388.54781   -63.859466            0            0            0   -28.565363    388.40435    -79.63815 
 1001000    24.229687    4955.6754    5087.8392   -1193.2136    816.20062   -25.813522    388.61715   -74.179369   -37.960586     388.6356   -73.921171   -26.245109    388.95453   -64.071329   -38.172298    388.62306   -63.843876            0            0            0   -28.568133    388.44346   -79.643682 
 1001100    24.229687    4598.7211    4825.5392   -1627.4681    820.60478   -25.886322    388.70698   -74.139866    -37.91865    388.62479   -73.932502   -26.344343    388.99153   -64.135096   -38.197845    388.59097   -63.854119            0            0            0   -28.570904    388.48257   -79.649213 
 1001200    24.229687    5489.4597    5669.5294   -808.86304    829.95695   -25.879089    388.75689   -74.188992   -38.022373    388.61437   -73.918918   -26.401941    389.00197   -64.119471   -38.335796    388.51384   -63.860068            0            0            0   -28.573675    388.52167   -79.654744 
 1001300    24.229687    5245.6083     6612.615   -589.65104    820.65628   -25.973915    388.78219   -74.255078   -38.035696    388.69076   -73.911112   -26.525924    389.03019   -64.187902   -38.417711    388.57742   -63.886397            0            0            0   -28.576446    388.56078   -79.660276 
 1001400    24.229687    5379.2936    6213.4763    1235.2364    824.93545   -25.936106    388.77414   -74.235232   -38.088138    388.73009   -73.984316   -26.555662    389.01829   -64.259753   -38.481558    388.56157   -63.968812            0            0            0   -28.579217    388.59989   -79.665807 
 1001500    24.229687     6830.339    6640.8036    1058.6836    819.97892   -26.014262    388.85089   -74.213266     -38.0239    388.70851   -73.995389   -26.676993    389.03935   -64.303269   -38.465989    388.59955    -63.97253            0            0            0   -28.581988      388.639   -79.671339 
 1001600    24.229687    6517.0085    6442.8098    2018.8496     821.0477   -25.953402    388.90137   -74.297561   -38.117093    388.71292   -73.983793   -26.629143    389.13946   -64.340671   -38.585527    388.59756   -63.995875            0            0            0   -28.584759     388.6781    -79.67687 
 1001700    24.229687     6317.054    6155.2797    690.15476    828.00747   -26.024433    388.79914   -74.291546   -38.045568    388.83754   -73.918239   -26.709985    389.02091   -64.310812   -38.498175    388.69256   -63.941734            0            0            0   -28.587529    388.71721   -79.682402 
 1001800    24.229687    4960.0598    5082.8569   -149.08211    825.51557   -25.979033     388.8692   -74.270722   -38.053517    388.86736   -73.973515   -26.596691    389.09883    -64.20148     -38.5128    388.73542   -63.972162            0            0            0     -28.5903    388.75632   -79.687933 
 1001900    24.229687    5265.5222    5716.4106    247.55136    816.34956   -25.963867    388.99119   -74.198793   -38.054322    388.83585   -73.995329   -26.597933    389.14687   -64.132934   -38.429842    388.71562   -63.950153            0            0            0   -28.593071    388.79543   -79.693464 
 1002000    24.229687    3881.4866    4086.4722   -1922.4261    825.91385   -25.945512    389.04344   -74.199417   -38.045629    388.84015   -73.970911    -26.50177    389.25208   -64.140931   -38.411259    388.68959   -63.848652            0            0            0   -28.595842    388.83454   -79.698996 
 1002100    24.229687    3783.4514    3766.7854   -1727.6454    802.63414   -25.929908    389.03623   -74.182111   -38.025249    388.97941   -73.936075   -26.416411    389.24224   -64.150455   -38.368083    388.79829   -63.791972            0            0            0   -28.598613    388.87364   -79.704527 
 1002200    24.229687     4992.889    3140.0664   -823.18697    820.24542   -25.925982    389.00543   -74.292437   -38.002057    389.02223   -73.981442   -26.409027    389.19319   -64.281951   -38.271815    388.91633    -63.91369            0            0            0   -28.601384    388.91275   -79.710059 
 1002300    24.229687    5494.2857    5060.3076   -1109.7828    822.37134   -25.899558    389.10828   -74.290929   -37.949615    389.02518   -73.956793   -26.345113    389.25854   -64.226451   -38.201244    388.92611   -63.900973            0            0            0   -28.604155    388.95186    -79.71559 
 1002400    24.229687    6136.7877    4736.8896   -712.85641    851.22057   -25.843103    389.17024   -74.320021   -37.926803      389.053   -74.007915   -26.240159    389.40779   -64.325775   -38.112322    388.94499   -63.973576            0            0            0   -28.606926    388.99097   -79.721121 
 1002500    24.229687    7219.8519    6749.5131    1071.7453    833.01982   -25.826544    389.22585   -74.338537   -37.948321    389.11141   -74.099224   -26.140461    389.48112   -64.420173   -38.133184     388.9871   -64.101591            0            0            0   -28.609696    389.03007   -79.726653 
 1002600    24.229687    8602.2355    6964.2424    3130.1231    823.97264   -25.844452    389.24822    -74.31202   -37.909599    389.17783   -74.035724   -26.166918    389.48958   -64.349094   -38.004968    389.12445   -64.057679            0            0            0   -28.612467    389.06918   -79.732184 
 1002700    24.229687    7814.6684    6582.7796    2411.4949    847.52144   -25.843302    389.29728   -74.345081   -37.960469    389.19639   -74.079052   -26.126931    389.51037   -64.361458   -38.031064    389.10531   -64.139877            0            0            0   -28.615238    389.10829   -79.737716 
 1002800    24.229687    6285.4387    5914.5259    2055.8911    811.00842   -25.881806    389.36736   -74.367319   -37.930383    389.28926   -74.055548   -26.134164    389.61306   -64.411581   -37.995457    389.18865   -64.060348            0            0            0   -28.618009     389.1474   -79.743247 
 1002900    24.229687    5173.0117    5162.1166   -632.90314    802.57399   -25.840237    389.34195   -74.329442   -37.959516    389.33934     -73.9674   -26.112561    389.62102   -64.282863     -38.0441    389.25933   -63.901726            0            0            0    -28.62078     389.1865   -79.748779 
 1003000    24.229687    5331.7062    4427.4347   -1731.9518    818.75402   -25.876129    389.42808   -74.348443   -37.915807    389.33626   -73.959943   -26.200216    389.69432   -64.245723   -38.036775    389.31513   -63.878309            0            0            0   -28.623551    389.22561    -79.75431 
 1003100    24.229687    4339.8675    4462.2515   -2366.3163    796.25191   -25.813464    389.47311   -74.285631   -37.972099    389.33098   -74.037172   -26.179784     389.8077   -64.121632   -38.145534    389.37041   -63.952388            0            0            0   -28.626322    389.26472   -79.759841 
 1003200    24.229687    5293.9145    4430.7408    -1092.185    795.31139   -25.904392    389.46046   -74.248787   -37.942992    389.41566   -74.083143   -26.319225    389.75545   -64.130862   -38.126123    389.41627   -64.013036            0            0            0   -28.629092    389.30383   -79.765373 
 1003300    24.229687    5359.3554    4161.5405   -1687.9911    815.91302   -25.891819    389.49239   -74.300243   -37.991974    389.47222   -74.072022   -26.338658    389.85152    -64.25014    -38.25656    389.41428   -64.045905            0            0            0   -28.631863    389.34294   -79.770904 
 1003400    24.229687    6501.2685    6400.3499    818.61345    827.62272   -25.918809    389.60644   -74.376006   -37.998789    389.44438   -73.989623   -26.414027    389.87807    -64.39643    -38.27318    389.34882   -63.976177            0            0            0   -28.634634    389.38204   -79.776436 
 1003500    24.229687    6982.0007    7978.0051    2431.3779     814.8477   -25.938906     389.6399   -74.442222   -38.020737    389.49793   -74.035493   -26.443298    389.84061   -64.480065   -38.366458    389.42102   -64.020382            0            0            0   -28.637405    389.42115   -79.781967 
 1003600    24.229687    6343.8637    7015.0352    1168.2176    858.32218   -25.920423    389.60908   -74.384562   -38.033414    389.61762   -74.068582   -26.491082    389.79467   -64.407266   -38.401309     389.5134   -64.111748            0            0            0   -28.640176    389.46026   -79.787498 
 1003700    24.229687    7183.8235    6782.3153    1456.1862    844.27562   -25.952849     389.6426   -74.393175   -38.057204    389.60326   -74.136093    -26.54831    389.96746   -64.453147   -38.452991    389.45096   -64.175992            0            0            0   -28.642947    389.49937    -79.79303 
 1003800    24.229687    7422.7741    7081.4428    1238.3546    813.88403   -26.009004    389.75064   -74.351652   -38.083564     389.5983   -74.084825   -26.623841    389.95857   -64.365375   -38.460744     389.4601   -64.071004            0            0            0   -28.645718    389.53847   -79.798561 
 1003900    24.229687    6032.6879    5632.2428   -464.91753    813.71913   -26.048384     389.7553   -74.354789   -38.090496     389.6587   -74.054935   -26.631306    389.93402   -64.309415   -38.436882    389.59549   -64.036009            0            0            0   -28.648489    389.57758   -79.804093 
 1004000    24.229687    4469.9755     5263.997   -537.04942    817.55172   -26.016578    389.73564   -74.406576   -38.097499    389.76718   -74.033337    -26.55722    389.93337     -64.2867   -38.451023    389.63601   -63.984401            0            0            0   -28.651259    389.61669   -79.809624 
 1004100    24.229687    3833.4103    4002.0348   -2210.8975    805.77484   -26.002366    389.79476   -74.328591   -38.105795    389.74601    -74.02999     -26.5065    390.03435   -64.221688   -38.443499    389.56565   -63.939832            0            0            0    -28.65403     389.6558   -79.815156 
 1004200    24.229687    3680.5388    4330.3642   -2378.4191    835.18013   -25.966317    389.87582   -74.311973    -38.10406    389.72472   -74.091877   -26.533114    390.06379   -64.267697   -38.458195    389.63801     -63.9765            0            0            0   -28.656801    389.69491   -79.820687 
 1004300    24.229687    5067.4546    4722.1361   -1633.5873     811.2773   -25.970103    389.86571   -74.356144   -38.055335    389.80693   -74.140056     -26.5321    390.10316   -64.315207   -38.462965    389.72362   -64.101018            0            0            0   -28.659572    389.73401   -79.826218 
 1004400    24.229687    6135.2805    5958.8344     1260.267    817.62364   -25.944974    389.85901   -74.370062   -38.032191    389.88011   -74.111812    -26.48462    390.14093   -64.321327   -38.393753    389.79211   -64.116601            0            0            0   -28.662343    389.77312    -79.83175 
 1004500    24.229687    6819.3286    5613.5298    1264.5024    817.87381   -25.913775    389.98288   -74.494068   -38.020729    389.88016   -74.153037    -26.38411    390.22047   -64.518683   -38.360295    389.84964   -64.217268            0            0            0   -28.665114    389.81223   -79.837281 
 1004600    24.229687    7145.0197    6063.8509    1863.7375      837.256   -25.957957    390.02566   -74.441933   -37.990885     389.8939   -74.139694   -26.461469    390.25714   -64.571469   -38.194367    389.80316   -64.204424            0            0            0   -28.667885    389.85134   -79.842813 
 1004700    24.229687    6853.8865    6571.1407    1192.1409    834.47361   -25.893875    390.07186   -74.453814   -38.055822    390.06799   -74.194952   -26.294234    390.30281   -64.533702   -38.294005     389.9482   -64.215711            0            0            0   -28.670656    389.89044   -79.848344 
 1004800    24.229687    6098.8988    7646.6161    1100.9398    812.69191   -25.956246    390.08965   -74.413697   -37.981009    390.04177   -74.147333   -26.362019    390.28939   -64.419734   -38.154945    389.86935   -64.208854            0            0            0   -28.673426    389.92955   -79.853876 
 1004900    24.229687    5622.0265    5783.1717   -865.58109    833.03327   -25.923536     390.1985   -74.413823   -38.032145     390.1004   -74.173772   -26.279128    390.36451   -64.353013    -38.20797    389.95975   -64.160057            0            0            0   -28.676197    389.96866   -79.859407 
 1005000    24.229687    3368.6226     4187.398    -1046.551    833.61792   -25.954652    390.16885   -74.448934   -37.989621     390.1493   -74.139161   -26.296907    390.34797   -64.481376   -38.115611    390.00867   -64.042225            0            0            0   -28.678968    390.00777   -79.864938 
Loop time of 1682.51 on 7 procs for 1000000 steps with 1200 atoms

Pair  time (%) = 912.925 (54.2597)
Neigh time (%) = 21.697 (1.28956)
Comm  time (%) = 317.535 (18.8727)
Outpt time (%) = 0.780303 (0.0463774)
Other time (%) = 429.572 (25.5316)

Nlocal:    171.429 ave 378 max 0 min
Histogram: 2 1 1 0 0 0 0 0 2 1
Nghost:    1020.86 ave 2157 max 0 min
Histogram: 2 0 0 1 1 0 0 1 1 1
Neighs:    11447.7 ave 26773 max 0 min
Histogram: 2 2 0 0 0 0 0 0 1 2

Total # of neighbors = 80134
Ave neighs/atom = 66.7783
Neighbor list builds = 33817
Dangerous builds = 0



end
