LAMMPS (16 Feb 2016)
# ------------------------ INITIALIZATION ----------------------------
echo both
#log		log.c
units           metal
dimension       3
boundary        p p p
atom_style      atomic
shell         mkdir  cfg
WARNING: Shell command 'mkdir' failed with error 'File exists' (../input.cpp:1126)
shell         mkdir  dump
WARNING: Shell command 'mkdir' failed with error 'File exists' (../input.cpp:1126)


# ----------------------- ATOM DEFINITION & Force Field -------------
lattice         fcc 3.615 #origin 0.0 0.0 0.0 orient x 1 -1 0 orient y 1 1 -2 orient z 1 1 1
Lattice spacing in x,y,z = 3.615 3.615 3.615
variable        Lx equal 65
variable        Ly equal 3
variable        Lz equal 260
variable        boxLZ equal 270
region          SYSTEM block -${Lx} ${Lx} -${Ly} ${Ly} -${Lz} 0 units lattice
region          SYSTEM block -65 ${Lx} -${Ly} ${Ly} -${Lz} 0 units lattice
region          SYSTEM block -65 65 -${Ly} ${Ly} -${Lz} 0 units lattice
region          SYSTEM block -65 65 -3 ${Ly} -${Lz} 0 units lattice
region          SYSTEM block -65 65 -3 3 -${Lz} 0 units lattice
region          SYSTEM block -65 65 -3 3 -260 0 units lattice
region          BOX block -${Lx} ${Lx} -${Ly} ${Ly} -${boxLZ} 5 units lattice
region          BOX block -65 ${Lx} -${Ly} ${Ly} -${boxLZ} 5 units lattice
region          BOX block -65 65 -${Ly} ${Ly} -${boxLZ} 5 units lattice
region          BOX block -65 65 -3 ${Ly} -${boxLZ} 5 units lattice
region          BOX block -65 65 -3 3 -${boxLZ} 5 units lattice
region          BOX block -65 65 -3 3 -270 5 units lattice
create_box      1 BOX
Created orthogonal box = (-234.975 -10.845 -976.05) to (234.975 10.845 18.075)
  16 by 1 by 32 MPI processor grid
create_atoms    1 region SYSTEM
Created 812760 atoms

delete_atoms     porosity BOX 0.01 401
Deleted 8083 atoms, new total = 804677

#---------------------------------------------------------------------


pair_style      eam/alloy
pair_coeff  	  * * Cu01.eam.alloy Cu

#----------------------------------------------------------------------
velocity       all create 300.0 28663 mom yes rot yes dist gaussian
fix             1 all npt temp 300 300 0.1 iso 0.0 0.0 2
run      10000
Neighbor list info ...
  1 neighbor list requests
  update every 1 steps, delay 10 steps, check yes
  max neighbors/atom: 2000, page size: 100000
  master list distance cutoff = 7.50679
  ghost atom cutoff = 7.50679
  binsize = 3.75339 -> bins = 126 6 265
Memory usage per processor = 2.15747 Mbytes
Step Temp E_pair E_mol TotEng Press Volume 
       0          300   -2836308.3            0   -2805104.5   -46.016254     10133330 
   10000    299.75978     -2804824            0   -2773645.2   -50.291509     10240489 
Loop time of 124.672 on 512 procs for 10000 steps with 804677 atoms

Performance: 6.930 ns/day, 3.463 hours/ns, 80.211 timesteps/s
99.9% CPU use with 512 MPI tasks x no OpenMP threads

MPI task timing breakdown:
Section |  min time  |  avg time  |  max time  |%varavg| %total
---------------------------------------------------------------
Pair    | 34.586     | 80.222     | 89.043     | 110.2 | 64.35
Neigh   | 0.00086999 | 0.27153    | 0.31206    |  11.5 |  0.22
Comm    | 2.7854     | 11.726     | 34.689     | 131.7 |  9.41
Output  | 0.00082612 | 0.00083472 | 0.00085807 |   0.0 |  0.00
Modify  | 25.445     | 31.264     | 85.287     | 177.5 | 25.08
Other   |            | 1.187      |            |       |  0.95

Nlocal:    1571.63 ave 1793 max 0 min
Histogram: 16 0 0 0 16 0 0 8 48 424
Nghost:    4560.4 ave 5112 max 496 min
Histogram: 16 0 0 14 2 0 16 0 98 366
Neighs:    109889 ave 126004 max 0 min
Histogram: 16 0 0 16 0 0 0 9 95 376

Total # of neighbors = 56263090
Ave neighs/atom = 69.9201
Neighbor list builds = 45
Dangerous builds = 0
unfix 1

fix            2 all nvt temp 300.0 300.0 0.1

run      10000
Memory usage per processor = 2.15806 Mbytes
Step Temp E_pair E_mol TotEng Press 
   10000    299.75978     -2804824            0   -2773645.2   -50.291509 
   20000    299.71201   -2804808.7            0   -2773634.9   -450.67739 
Loop time of 121.45 on 512 procs for 10000 steps with 804677 atoms

Performance: 7.114 ns/day, 3.374 hours/ns, 82.338 timesteps/s
99.9% CPU use with 512 MPI tasks x no OpenMP threads

MPI task timing breakdown:
Section |  min time  |  avg time  |  max time  |%varavg| %total
---------------------------------------------------------------
Pair    | 34.758     | 80.269     | 88.42      | 109.3 | 66.09
Neigh   | 0.0007422  | 0.22927    | 0.26929    |  10.6 |  0.19
Comm    | 2.7353     | 12.174     | 35.26      | 131.5 | 10.02
Output  | 0.00020695 | 0.00022001 | 0.00024605 |   0.0 |  0.00
Modify  | 17.495     | 23.468     | 77.935     | 204.7 | 19.32
Other   |            | 5.31       |            |       |  4.37

Nlocal:    1571.63 ave 1777 max 0 min
Histogram: 16 0 0 0 16 0 0 2 14 464
Nghost:    4562.54 ave 5103 max 496 min
Histogram: 16 0 0 15 1 0 16 0 94 370
Neighs:    109857 ave 125644 max 0 min
Histogram: 16 0 0 16 0 0 0 8 76 396

Total # of neighbors = 56246875
Ave neighs/atom = 69.8999
Neighbor list builds = 38
Dangerous builds = 0
reset_timestep 0
unfix    2
#---------------------- DEFINE Laser GERION and GROUP ----------------
region       R1  block -75  75  INF  INF  INF  5  units box
group        G1 region R1
256916 atoms in group G1
group        G2 subtract all G1
547761 atoms in group G2


#define     temperature/pressure calculation  group
variable    x1atom atom "x>=0  &&  x<4 &&  z>-40 && z<1"     ##NEW!!!!!!!!!!!!
variable    x2atom atom "x>=-234.98  &&  x<-230.98 &&  z>-40 && z<1"
variable    x3atom atom "x>=0  &&  x<4 &&  z>-20 && z<1"
variable    x4atom atom "x>=-234.98  &&  x<-230.98 &&  z>-20 && z<1"
variable    x5atom atom "x>=196  &&  x<200 &&  z>-40 && z<1"

group       x1atom variable x1atom
285 atoms in group x1atom
group       x2atom variable x2atom
272 atoms in group x2atom
group       x3atom variable x3atom
151 atoms in group x3atom
group       x4atom variable x4atom
142 atoms in group x4atom
group       x5atom variable x5atom
283 atoms in group x5atom


compute      COM1x x1atom com
compute      COM2x x2atom com
compute      COM3x x3atom com
compute      COM4x x4atom com
compute      COM5x x5atom com

compute      COMall all com

#Temperature profile
#variable      Tprofile atom 300*(1+(step/5000)*2.5*exp(z/40))
#variable tmp equal "lz"
#variable L0 equal ${tmp}
variable      Tprofile atom  300+600*(step/5000)*exp(z/40)*exp(-x*x/1289)


# ------------------------- SETTINGS ---------------------------------
thermo          100
thermo_style    custom step lx pxx pyy pzz temp c_COM1x[1] c_COM1x[2] c_COM1x[3] c_COM2x[1] c_COM2x[2] c_COM2x[3] c_COM3x[1] c_COM3x[2] c_COM3x[3] c_COM4x[1] c_COM4x[2] c_COM4x[3]  c_COM5x[1] c_COM5x[2] c_COM5x[3] c_COMall[1] c_COMall[2] c_COMall[3]

timestep       0.002


compute dispall all displace/atom
# ---------------- Run Laser Material Interaction --------------------
#dump          1 all custom 1000 dump/z1dump.atom id type x y z c_dispall[1]  c_dispall[2]  c_dispall[3] c_dispall[4]
#dump          2 all cfg 100 cfg/*.cfg mass type xs ys zs
#dump_modify   2 element Al

#relax for 2 PS
#fix           1 all nvt temp 300.0 300.0 0.1
#run  1000
#unfix         1

fix           1  all nve
fix           3temp  all  langevin  v_Tprofile  0  0.1  378411   #TEST ALL
run           5000
Memory usage per processor = 2.53306 Mbytes
Step Lx Pxx Pyy Pzz Temp COM1x[1] COM1x[2] COM1x[3] COM2x[1] COM2x[2] COM2x[3] COM3x[1] COM3x[2] COM3x[3] COM4x[1] COM4x[2] COM4x[3] COM5x[1] COM5x[2] COM5x[3] COMall[1 COMall[2 COMall[3 
       0    471.60075      -473.22   -454.94879   -423.86339    299.71201    2.5282545  -0.95741485   -19.608983   -233.13757  -0.89983811   -19.745051    2.5004803  -0.93559711    -9.798666   -233.12216  -0.83542988   -9.6975901    198.51298  -0.88899619   -19.854672  -0.90651765  -0.90734942   -469.89511 
     100    471.60075   -452.91772    -438.0857   -423.15186    299.44465    2.5227186  -0.95611366    -19.58387   -233.13458  -0.90678904   -19.732033    2.4819185  -0.95011205   -9.7826733   -233.10206  -0.85028558   -9.7030477    198.51096  -0.89758013    -19.85262  -0.90657457   -0.9068076   -469.89588 
     200    471.60075   -436.72664   -445.22009   -394.29712    299.93075    2.5344306   -0.9754191   -19.597991    -233.1388  -0.90048194   -19.747874    2.4772956   -0.9656961   -9.7917735   -233.12595  -0.83653317   -9.7261985    198.49575  -0.89356185   -19.847697  -0.90707798  -0.90651168   -469.89631 
     300    471.60075   -421.49658    -388.2675   -366.34007    300.28093    2.5176741  -0.97189886   -19.584518   -233.14199  -0.86592323   -19.728445    2.4587638  -0.97973476   -9.7644546    -233.1301  -0.79546236   -9.7016273    198.50333  -0.90311525   -19.863636  -0.90723242  -0.90651198   -469.89649 
     400    471.60075   -415.70979   -413.40207   -385.77492    300.08738    2.5250008   -0.9758892   -19.578817   -233.13923  -0.87037851   -19.721885    2.5067167   -0.9773755   -9.7256754   -233.12891  -0.81520142   -9.7085935    198.51667  -0.89657027   -19.825127  -0.90731789  -0.90604434   -469.89698 
     500    471.60075   -381.52463   -410.47622   -394.64848     300.4234    2.5048511  -0.94913012   -19.600371   -233.14072   -0.8792273   -19.714883    2.4742961  -0.95104496   -9.7156576   -233.11885  -0.81219326   -9.7021518    198.50533  -0.89725512   -19.860797  -0.90759829  -0.90603262   -469.89682 
     600    471.60075   -408.68371   -375.24523   -354.92229    300.14459    2.5186234   -0.9578513   -19.608849   -233.11247   -0.8956892   -19.723688     2.478479  -0.96209644   -9.7700398   -233.09518  -0.83836163   -9.7066305    198.50707  -0.90515443   -19.847717  -0.90698433  -0.90616704   -469.89639 
     700    471.60075   -393.13819   -412.14509   -359.32489    300.52688    2.5385773  -0.96053971   -19.601793   -233.10596  -0.90803557   -19.710517    2.5004758    -0.945804   -9.7640036   -233.07312  -0.83880138   -9.6550675    198.50134  -0.90695617   -19.838743  -0.90679136  -0.90552199   -469.89603 
     800    471.60075   -376.18135   -370.25176   -326.08527    300.08054    2.5283179  -0.95074906   -19.592606   -233.08859  -0.91639511   -19.706442     2.501044  -0.94448511   -9.7566996   -233.06373  -0.83417011   -9.6573625    198.49182  -0.90938084   -19.844633  -0.90727806  -0.90489037   -469.89558 
     900    471.60075   -377.03016   -368.16677   -334.50103    301.10849    2.5304209  -0.96189621   -19.579183   -233.10231  -0.92189839    -19.70272    2.5047889  -0.95279971   -9.7475783   -233.06854  -0.83688033   -9.6653668    198.47673  -0.89459861    -19.82541  -0.90729549  -0.90492357   -469.89508 
    1000    471.60075   -343.26111   -378.20462   -318.71384    300.99802    2.5416223  -0.97020975   -19.587266   -233.12455  -0.91914883   -19.680975    2.5240321  -0.94382965   -9.7613588   -233.07978  -0.83909418   -9.6396195     198.4855  -0.89167701   -19.825287  -0.90706367  -0.90511016   -469.89545 
    1100    471.60075   -365.93839   -374.52728   -373.30052    300.83628    2.5414251  -0.98143175    -19.60296    -233.1206   -0.9275655   -19.674471    2.5002809  -0.96935789   -9.7763353   -233.08084  -0.85024793   -9.6618649    198.49655  -0.85629085   -19.835673  -0.90718125  -0.90468652    -469.8952 
    1200    471.60075   -398.17796   -377.10431   -350.80629    300.91634    2.5435397  -0.99668009   -19.582728   -233.11836  -0.89892746   -19.656782    2.5246601   -1.0020473   -9.7513126   -233.09166   -0.8320968   -9.6064532    198.50996  -0.87100485   -19.841039  -0.90692759  -0.90495462   -469.89502 
    1300    471.60075   -416.76879   -409.30529   -366.13341    301.11531    2.5429363  -0.96580972    -19.59938   -233.11638  -0.89229029   -19.686808    2.4916999  -0.96712941   -9.7765964   -233.09532   -0.8146925   -9.6632722    198.51322  -0.89081769   -19.839778  -0.90642321  -0.90488168   -469.89445 
    1400    471.60075   -431.70986   -407.38274   -366.42277    300.83614    2.5337075    -0.949345    -19.60871   -233.11301  -0.89766379   -19.690507    2.5003293  -0.94378887   -9.7996077   -233.08641  -0.82033104   -9.6792094    198.50578  -0.87895748    -19.83673  -0.90649251  -0.90423971   -469.89374 
    1500    471.60075   -408.82537   -405.77196   -366.73962    300.85609    2.5197933  -0.96384462   -19.600043   -233.11338  -0.88390979   -19.690026    2.4722677  -0.96233023   -9.7867546   -233.10069  -0.77790395   -9.6668104    198.50623  -0.86212706   -19.846381  -0.90679169  -0.90383806   -469.89344 
    1600    471.60075   -387.84114   -345.36646   -315.01476    301.47026    2.5280086  -0.96495391   -19.595914   -233.10163  -0.90856826   -19.708487    2.4810337  -0.96256404   -9.7930647   -233.09468  -0.81682313   -9.6751874    198.50151  -0.83834736   -19.832789  -0.90725202  -0.90361615   -469.89322 
    1700    471.60075   -372.99341   -349.83727   -335.01549    300.95564    2.5221149   -0.9306966   -19.609963   -233.10458  -0.92219368     -19.7243    2.4802909  -0.92432458   -9.7891145   -233.08933  -0.85323162   -9.6943809    198.48486   -0.8322202   -19.834102  -0.90773606  -0.90400193   -469.89294 
    1800    471.60075    -362.2882   -349.53977   -336.92982    302.08511    2.5295815  -0.94011144   -19.601649   -233.10462  -0.91816267   -19.717858     2.504494  -0.95313944   -9.7785398   -233.08855  -0.85646762   -9.6968839    198.50956   -0.8472713   -19.861099  -0.90822997   -0.9040128   -469.89285 
    1900    471.60075    -351.9381   -354.11195   -314.17262    301.53929    2.5425822  -0.95053286   -19.588451   -233.12137  -0.89492956   -19.689029    2.5190541  -0.95084753    -9.777427   -233.11531  -0.80144443   -9.6545999    198.50242  -0.87543946   -19.872595  -0.90804787  -0.90414768   -469.89311 
    2000    471.60075   -348.56123   -335.22052   -322.00209    301.22885    2.5614825  -0.92284784   -19.601087   -233.12269  -0.90662597   -19.709502    2.5484075  -0.91359211   -9.8037253   -233.12805  -0.80649926   -9.6747116    198.51165  -0.87595236   -19.849989  -0.90826676   -0.9041922   -469.89321 
    2100    471.60075    -352.0495   -335.15787     -292.963    301.64111    2.5549915  -0.93654683   -19.585277   -233.11565  -0.90860118   -19.699438    2.5426969  -0.93149229   -9.7791407    -233.0985   -0.8052332   -9.6686134    198.50863  -0.87617862     -19.8306  -0.90857552  -0.90365763   -469.89376 
    2200    471.60075   -365.66461   -349.17739   -360.57682    301.87789    2.5429802  -0.93514859    -19.60263   -233.11159  -0.91650168   -19.700209     2.522688  -0.95585142    -9.786399    -233.0793  -0.83081329    -9.678028     198.5112  -0.83827394   -19.829175  -0.90936823  -0.90371028   -469.89415 
    2300    471.60075   -412.00818   -370.53633   -374.47418    301.64241    2.5428994  -0.93074944   -19.585636   -233.12016  -0.93223507   -19.683693    2.5276589  -0.93794868   -9.7575429   -233.09841  -0.86026156   -9.6785001    198.51061  -0.84600657   -19.843935  -0.90919765  -0.90366935   -469.89392 
    2400    471.60075   -346.64133   -321.70166   -331.00454    301.71801    2.5451654  -0.92887674   -19.593416   -233.11613  -0.91792346   -19.683933    2.5304284  -0.91049565   -9.7934186    -233.1105  -0.83636295   -9.6534765    198.51768  -0.83183942   -19.832768   -0.9089599   -0.9041438   -469.89378 
    2500    471.60075   -406.30651   -401.83835   -353.79555    301.53034    2.5594556  -0.93428475   -19.588405   -233.10665   -0.9075041   -19.684184    2.5542472  -0.90518565   -9.7652147   -233.09664  -0.83812836   -9.6753694    198.54227  -0.83660599   -19.831609  -0.90893845  -0.90437107   -469.89358 
    2600    471.60075    -343.5567   -347.30294    -347.9252    302.37337    2.5419195  -0.92162875   -19.568956   -233.09515  -0.91483167   -19.686245    2.5163798  -0.91047542   -9.7351142   -233.08989  -0.85900921   -9.6707211    198.51788  -0.84374833   -19.821526  -0.90922266  -0.90459578   -469.89352 
    2700    471.60075   -322.19737    -316.6187   -303.79498    302.52371    2.5165102  -0.92587929    -19.56585   -233.09856  -0.93385436   -19.674718    2.4980671   -0.9156723   -9.7221763   -233.08714  -0.89302028   -9.6413842    198.52718  -0.84158107   -19.839517  -0.90919595  -0.90460756   -469.89392 
    2800    471.60075   -351.12341   -306.29371   -334.50423    301.77372      2.53234  -0.92770624   -19.575827   -233.09963  -0.93803636   -19.698381    2.4987208  -0.93861831   -9.7673332    -233.0867  -0.91673373   -9.6759301    198.51111  -0.85838138   -19.826184  -0.90909417  -0.90542583   -469.89478 
    2900    471.60075   -368.42667   -353.66062   -349.57901    302.08724    2.5267237  -0.95189414   -19.606495   -233.10948   -0.9410473   -19.711736      2.49446  -0.96110318   -9.8011407   -233.09091  -0.90102308   -9.7109683    198.52135  -0.86460974   -19.809837  -0.90880498  -0.90545364   -469.89507 
    3000    471.60075   -359.55782   -350.34277   -325.03045    302.36509    2.5484783  -0.92923303   -19.587238   -233.09913  -0.92300953   -19.704592    2.4826718  -0.93322454   -9.7639865   -233.07495  -0.88614138   -9.6997851    198.53589  -0.86133427   -19.833988  -0.90867067  -0.90559844   -469.89515 
    3100    471.60075    -335.2881   -336.40167    -317.1041    302.39739    2.5685012  -0.95816272   -19.564731   -233.11386  -0.92410817    -19.72407    2.5133659  -0.95038021   -9.7182301   -233.12149  -0.88250673   -9.7278235    198.53077  -0.86845532   -19.836706  -0.90841726  -0.90568918   -469.89528 
    3200    471.60075   -358.81097   -325.06644   -340.40878    302.87318    2.5682211  -0.95844187   -19.573725    -233.1061  -0.92496301   -19.727964    2.5353238  -0.92792255   -9.7283048   -233.11359  -0.87868018   -9.7107567    198.52795  -0.84819313    -19.83282  -0.90808816  -0.90586708     -469.895 
    3300    471.60075     -359.442   -310.79904   -323.60585    302.51285    2.5720698  -0.93170966   -19.588579   -233.10691  -0.91071103   -19.745167    2.5455866  -0.90889075   -9.7466102   -233.10289   -0.8735561   -9.7306935    198.52297  -0.83904749   -19.824167  -0.90803758  -0.90620179   -469.89536 
    3400    471.60075   -343.10402   -308.52956   -269.35244    302.70444    2.5619709  -0.93040509   -19.617598   -233.11577  -0.94258599   -19.750141    2.5640449  -0.93220439   -9.7827003   -233.10943  -0.89812109   -9.7287312    198.51535   -0.8557925   -19.843175  -0.90844238  -0.90624606   -469.89528 
    3500    471.60075   -344.59895   -324.61064   -306.37065    302.27407     2.523304  -0.95360521   -19.596868   -233.11862  -0.92214335   -19.750112    2.5122068  -0.96490323    -9.770225   -233.12178   -0.8617504   -9.7226907    198.51761  -0.83098269   -19.863352  -0.90842387  -0.90633321   -469.89557 
    3600    471.60075   -349.11779   -271.38074   -299.61446    302.67159    2.5422308  -0.94962924   -19.578304   -233.12697  -0.93595228   -19.756431    2.5122361  -0.94523564   -9.7216686   -233.12454   -0.8750167   -9.7286477    198.52624  -0.81874288   -19.835822  -0.90856951    -0.906502   -469.89634 
    3700    471.60075    -340.7196   -298.37163   -283.12489    303.13095    2.5554143  -0.93017833   -19.588684   -233.12948  -0.92381903   -19.759872    2.5532131  -0.92342061   -9.7449615   -233.13481  -0.86825119   -9.7502236     198.5229  -0.81409471   -19.824476   -0.9083461  -0.90698651   -469.89655 
    3800    471.60075   -308.03531   -307.49491   -294.65119    302.39777    2.5678066   -0.9514577   -19.588682   -233.11197  -0.91438199   -19.759756    2.5638796  -0.94640332    -9.749063   -233.10647  -0.85489735   -9.7390512    198.51386   -0.8108029   -19.838776  -0.90823881  -0.90693014   -469.89654 
    3900    471.60075   -302.65582   -233.19419   -270.32709    303.13813    2.5779067  -0.96245132   -19.614108   -233.10836  -0.91687647   -19.764917    2.5697287  -0.97407563   -9.7476867   -233.10624  -0.84721995   -9.7635846    198.50321  -0.78772001   -19.824047   -0.9083042  -0.90786406   -469.89658 
    4000    471.60075   -312.73044   -291.59047    -280.9894    302.52754    2.5641159  -0.96070977   -19.571607   -233.10672  -0.93682923   -19.727884    2.5415369   -0.9984878   -9.7029405   -233.10377  -0.87296385   -9.7206798    198.52099   -0.7961212   -19.819856  -0.90818979  -0.90812109   -469.89659 
    4100    471.60075    -313.4626   -320.92628   -264.96563    302.68052    2.5635552  -0.91544177   -19.564516   -233.08423  -0.91375845   -19.723246    2.5335501  -0.91628922   -9.6893781   -233.08189  -0.85178346   -9.7073448    198.51763  -0.80091973   -19.802333  -0.90823283  -0.90804863   -469.89579 
    4200    471.60075   -310.58121   -316.79515   -315.32777    302.93222    2.5549375  -0.91189768   -19.569894   -233.10235  -0.91923782    -19.72613    2.5336216  -0.93017219   -9.7092332   -233.11372  -0.85520115    -9.712046    198.51611    -0.795154   -19.790062   -0.9078828  -0.90793125   -469.89543 
    4300    471.60075   -313.78215    -296.2516   -341.51258    303.13529    2.5674629  -0.93725306   -19.561114   -233.11695  -0.89960152   -19.715751    2.5238487  -0.94022754   -9.6871465   -233.12116  -0.83983904   -9.6791306    198.49838  -0.78830353    -19.79289  -0.90740317   -0.9082225    -469.8957 
    4400    471.60075   -259.07118   -249.56387   -257.20875     303.2165    2.5546278  -0.95667941   -19.537446   -233.12186  -0.90518747   -19.726186     2.511497  -0.98602035   -9.6284544   -233.11354  -0.85966198    -9.697101    198.50892  -0.77571192   -19.807145  -0.90750058  -0.90845105   -469.89633 
    4500    471.60075   -240.77405   -210.31661    -276.3168    303.16087    2.5694368  -0.96214464   -19.531212   -233.10726  -0.90259977   -19.726768    2.5285813  -0.98342475   -9.6380004   -233.09443  -0.84747372   -9.7168097    198.51887  -0.77411124   -19.826811  -0.90783042  -0.90815732   -469.89676 
    4600    471.60075   -251.88826   -239.22403   -236.68356    303.48774    2.5612908  -0.94525071   -19.530894    -233.0977  -0.89023285   -19.729792    2.4975936  -0.94682651   -9.6359322   -233.09531  -0.84182849   -9.7084587    198.50982  -0.79596763   -19.828054  -0.90757909  -0.90848171   -469.89721 
    4700    471.60075   -234.73424   -243.00931   -194.07454    303.38011    2.5876586  -0.91304446   -19.534786   -233.11004  -0.91113005   -19.728937    2.4898299  -0.93376652    -9.665576   -233.11511  -0.86526445   -9.7335394    198.51253  -0.82630088   -19.850523  -0.90743481  -0.90898502   -469.89778 
    4800    471.60075   -259.86564    -231.7804   -229.63362     304.1128    2.5961847  -0.94603094   -19.520353   -233.10297  -0.91111981   -19.718529    2.5292084   -1.0189731   -9.6305515   -233.10191  -0.85737402   -9.6962674    198.51881  -0.82030162    -19.88122  -0.90745064  -0.90920484   -469.89843 
    4900    471.60075   -239.66466    -231.9921   -195.99106     303.3199    2.6022136   -0.9504734   -19.538752    -233.1062  -0.89888742   -19.713218    2.5479748   -1.0223997   -9.6568137   -233.09863   -0.8349105   -9.6863106    198.52187  -0.82619421    -19.86591  -0.90760646  -0.90923447   -469.89848 
    5000    471.60075   -274.24091   -221.60862   -234.80705    303.24154    2.6069661  -0.92785267   -19.555691   -233.12463  -0.91054496   -19.723911    2.5335301  -0.99029803    -9.683878   -233.14046  -0.84026977   -9.6930562    198.53044  -0.83259195   -19.862877  -0.90783238  -0.90909657   -469.89868 
Loop time of 63.0615 on 512 procs for 5000 steps with 804677 atoms

Performance: 13.701 ns/day, 1.752 hours/ns, 79.288 timesteps/s
99.9% CPU use with 512 MPI tasks x no OpenMP threads

MPI task timing breakdown:
Section |  min time  |  avg time  |  max time  |%varavg| %total
---------------------------------------------------------------
Pair    | 17.417     | 40.313     | 44.119     |  77.8 | 63.93
Neigh   | 0.00036979 | 0.11473    | 0.13595    |   7.5 |  0.18
Comm    | 2.3681     | 6.3914     | 18.012     |  89.2 | 10.14
Output  | 0.23767    | 0.46485    | 0.78966    |  10.7 |  0.74
Modify  | 0.043963   | 2.7423     | 3.2745     |  33.9 |  4.35
Other   |            | 13.03      |            |       | 20.67

Nlocal:    1571.63 ave 1793 max 0 min
Histogram: 16 0 0 0 16 0 0 8 44 428
Nghost:    4561.7 ave 5099 max 496 min
Histogram: 16 0 0 13 3 0 16 0 93 371
Neighs:    109882 ave 125982 max 0 min
Histogram: 16 0 0 16 0 0 0 8 92 380

Total # of neighbors = 56259618
Ave neighs/atom = 69.9158
Neighbor list builds = 19
Dangerous builds = 0


variable  com1_x equal "c_COM1x[1]"
variable  com1_y equal "c_COM1x[2]"
variable  com1_z equal "c_COM1x[3]"
variable  com2_x equal "c_COM2x[1]"
variable  com2_y equal "c_COM2x[2]"
variable  com2_z equal "c_COM2x[3]"
variable  com3_x equal "c_COM3x[1]"
variable  com3_y equal "c_COM3x[2]"
variable  com3_z equal "c_COM3x[3]"
variable  com4_x equal "c_COM4x[1]"
variable  com4_y equal "c_COM4x[2]"
variable  com4_z equal "c_COM4x[3]"
variable  com5_x equal "c_COM5x[1]"
variable  com5_y equal "c_COM5x[2]"
variable  com5_z equal "c_COM5x[3]"
variable  comall_x equal "c_COMall[1]"
variable  comall_y equal "c_COMall[2]"
variable  comall_z equal "c_COMall[3]"


fix          2 all print 100 "${com1_x}   ${com1_y}   ${com1_z}  ${com2_x}   ${com2_y}   ${com2_z} ${com3_x}   ${com3_y}   ${com3_z} ${com4_x}   ${com4_y}   ${com4_z} ${com5_x}   ${com5_y}   ${com5_z} ${comall_x}   ${comall_y}   ${comall_z}" file COM.data screen no
#-------------------------- Wave Propagation -------------------------
unfix        3temp
run          1000000
Memory usage per processor = 2.53306 Mbytes
Step Lx Pxx Pyy Pzz Temp COM1x[1] COM1x[2] COM1x[3] COM2x[1] COM2x[2] COM2x[3] COM3x[1] COM3x[2] COM3x[3] COM4x[1] COM4x[2] COM4x[3] COM5x[1] COM5x[2] COM5x[3] COMall[1 COMall[2 COMall[3 
    5000    471.60075   -274.24091   -221.60862   -234.80705    303.24154    2.6069661  -0.92785267   -19.555691   -233.12463  -0.91054496   -19.723911    2.5335301  -0.99029803    -9.683878   -233.14046  -0.84026977   -9.6930562    198.53044  -0.83259195   -19.862877  -0.90783238  -0.90909657   -469.89868 
    5100    471.60075   -287.31481   -281.73244   -241.26317    303.27104    2.5775974  -0.93843016   -19.556263   -233.10518  -0.91504551   -19.717579    2.4798816   -1.0109364   -9.6579043   -233.13093  -0.86304812    -9.706787    198.53006  -0.83567784   -19.859428  -0.90732947  -0.90907517   -469.89933 
    5200    471.60075   -295.58797   -269.83309    -282.9947    303.29386    2.5624343  -0.96758071    -19.55455   -233.11105  -0.88047705   -19.705698    2.4504299   -1.0256667   -9.6412872   -233.12079  -0.83839584   -9.6807936    198.51093  -0.83911762   -19.849845  -0.90682656  -0.90905376   -469.89998 
    5300    471.60075   -362.07894   -316.11195   -306.18086    303.46041    2.5601865   -0.9654192   -19.506907     -233.107  -0.88176975   -19.731357    2.4677261  -0.96983814   -9.5826073   -233.09374  -0.79565924   -9.7022283    198.50483  -0.83006972   -19.840803  -0.90632365  -0.90903236   -469.90063 
    5400    471.60075   -341.23306   -363.16521   -361.70611     303.6196    2.5561176   -0.9822814   -19.484303   -233.12302  -0.90206435   -19.748077    2.4968142   -0.9621653   -9.5758747   -233.11016  -0.83097094   -9.7021911    198.50207  -0.82320681   -19.823757  -0.90582074  -0.90901096   -469.90128 
    5500    471.60075    -340.8987   -315.17436   -365.61793    303.12788     2.542789  -0.97750528   -19.486603   -233.11401  -0.88302313   -19.760033    2.5230368  -0.95153831   -9.5637888   -233.09683  -0.79913678   -9.7096299    198.50725  -0.83121977   -19.843335  -0.90531783  -0.90898956   -469.90194 
    5600    471.60075    -375.8343   -344.81861   -332.23654    303.11558    2.5032597  -0.94770328   -19.470155   -233.13301  -0.87400018   -19.752969    2.4685248  -0.94202325   -9.5434239   -233.11235  -0.79827297   -9.7353158    198.49584   -0.8480809   -19.847029  -0.90481493  -0.90896816   -469.90259 
    5700    471.60075   -355.62299   -337.12961   -360.80464    302.98175    2.5399697  -0.95632551   -19.425709   -233.11067   -0.8867758   -19.777712    2.5170827  -0.95151832   -9.4904981    -233.0962  -0.78595295   -9.7578238    198.49167   -0.8563867   -19.828075  -0.90431202  -0.90894676   -469.90324 
    5800    471.60075    -393.9694    -366.4763    -367.2743    303.27043    2.5393941  -0.97900051    -19.44468   -233.10957  -0.88278648   -19.797051     2.524271  -0.98571801   -9.5403852   -233.10866   -0.8171443   -9.7740421    198.48092  -0.86528306   -19.824567  -0.90380911  -0.90892536   -469.90389 
    5900    471.60075   -343.28236   -388.34335   -363.67895    303.02145     2.553843  -0.99714327   -19.441714    -233.0948  -0.86869847   -19.821352    2.5498237  -0.99622365   -9.5500021   -233.07964  -0.82536088   -9.7979294    198.45229  -0.85185106   -19.826893   -0.9033062  -0.90890395   -469.90454 
    6000    471.60075    -363.4461   -326.61338    -360.8699    302.95825    2.5260225   -1.0326037   -19.393462   -233.10059  -0.83877418   -19.846289    2.5128225   -1.0208232   -9.5098996   -233.08621  -0.78380961    -9.831222    198.47107  -0.82201698   -19.827048  -0.90280329  -0.90888255   -469.90519 
    6100    471.60075   -341.13563   -337.75919   -395.31403    303.18075    2.5007931  -0.98062717   -19.372362   -233.13067  -0.81232809   -19.842598     2.509384  -0.98680038   -9.4970278   -233.11431  -0.74051681   -9.8434955    198.48072  -0.81649078   -19.840838  -0.90230038  -0.90886115   -469.90584 
    6200    471.60075   -360.86602   -335.48802   -341.78164    303.14492    2.5165369  -0.94014728   -19.357582    -233.1322  -0.82434118   -19.876798    2.5045379  -0.96594275   -9.4521767   -233.12512  -0.74127251    -9.874334    198.49726  -0.82519004   -19.843197  -0.90179747  -0.90883975   -469.90649 
    6300    471.60075   -294.28959   -331.23716   -305.99915    302.98513    2.4913298  -0.94390068   -19.387597   -233.15343  -0.82413367   -19.867873    2.4661989  -0.97679145   -9.4860838   -233.14936  -0.74205658   -9.8349318    198.50424  -0.82010429   -19.820924  -0.90129456  -0.90881835   -469.90714 
    6400    471.60075   -319.20227    -284.9427   -280.74017      303.576    2.4903608  -0.93480111   -19.357759   -233.14655  -0.81959839    -19.86332    2.4439842  -0.94650553   -9.4394564   -233.12583  -0.74366567   -9.8376129     198.4834  -0.84274602   -19.831236  -0.90079166  -0.90879695   -469.90779 
    6500    471.60075   -272.07334   -296.70982   -257.61455    303.49612     2.518183  -0.95265671   -19.370218   -233.14102  -0.80148055   -19.880876    2.4783774  -0.95285837   -9.4897486   -233.12268  -0.73752557   -9.8693521    198.46917  -0.81292165   -19.875905  -0.90028875  -0.90877555   -469.90844 
    6600    471.60075   -275.91246   -254.17105   -274.12088    303.31042    2.5480652  -0.96285129    -19.33898   -233.12012  -0.79544758    -19.88528    2.4935726  -0.96296618   -9.4472157   -233.12404  -0.72920014   -9.8819791     198.4771  -0.80437904   -19.883607  -0.89978584  -0.90875414   -469.90909 
    6700    471.60075   -303.54049   -258.12385   -250.36598    303.22357    2.5366061  -0.95098313   -19.365483   -233.12374  -0.80258807   -19.880429    2.4909577  -0.94557718   -9.4586103   -233.11648  -0.74958294    -9.881153    198.48475   -0.7912483   -19.897973  -0.89928293  -0.90873274   -469.90974 
    6800    471.60075   -288.67575   -290.00852   -285.79936    303.73136    2.5255197  -0.94771017   -19.344441    -233.1483   -0.8154822    -19.89346    2.5173737  -0.94745104   -9.4590663    -233.1469  -0.76897503   -9.8937013    198.46532  -0.76883359   -19.891952  -0.89878002  -0.90871134   -469.91039 
    6900    471.60075   -276.32009   -249.54869   -292.07015    303.19653    2.5519421  -0.94046402   -19.349663   -233.16438  -0.82081947   -19.844034    2.5590354  -0.94240974    -9.468198   -233.15047  -0.73009289   -9.8625192    198.48082  -0.78417073    -19.89688  -0.89827711  -0.90868994   -469.91104 
    7000    471.60075   -295.86626   -281.80912   -268.66933    303.40612    2.5608515  -0.92710965   -19.337342   -233.15167  -0.82455373   -19.835485    2.5526264   -0.9110127   -9.4695479   -233.13311  -0.75412271   -9.8190634    198.46096  -0.76561093    -19.89087   -0.8977742  -0.90866854   -469.91169 
    7100    471.60075   -281.99104   -289.76232   -300.02809    303.16419    2.5878225  -0.89370992   -19.318284   -233.12802  -0.79355383   -19.836109    2.5941372  -0.84307311   -9.4506315   -233.10635  -0.71787562   -9.8374896    198.46685  -0.76508096    -19.87127   -0.8972713  -0.90864714   -469.91234 
    7200    471.60075   -280.15586   -281.57507    -267.3415    303.03065    2.5950228  -0.90530524    -19.31319   -233.13141  -0.76071996   -19.820216    2.5840712  -0.88936939   -9.4579678   -233.10215  -0.68911448   -9.8122615    198.45866  -0.76689103   -19.874975  -0.89676839  -0.90862574   -469.91299 
    7300    471.60075   -321.20666   -275.89656    -280.1857    303.35439    2.6167701  -0.87880252    -19.32316   -233.12154   -0.7518439   -19.789924    2.6029907  -0.89710569   -9.4742168   -233.08812  -0.66922851   -9.7647023    198.44121  -0.78014807   -19.878909  -0.89626548  -0.90860434   -469.91365 
    7400    471.60075   -312.18018   -316.37968   -316.08262    303.41969    2.6103736  -0.87210207   -19.333075   -233.13153  -0.73456185    -19.76235    2.5861627   -0.9020404   -9.5059666    -233.1105  -0.65558501     -9.71741    198.46302  -0.77680063   -19.864085  -0.89576257  -0.90858293    -469.9143 
    7500    471.60075   -276.21065   -307.56052   -284.15416    303.17398    2.6212177  -0.88086367   -19.320328   -233.11935  -0.69918534   -19.749787    2.6049032  -0.89363552   -9.4712178   -233.11353  -0.60148105   -9.6949329    198.46408  -0.78019879   -19.878503  -0.89525966  -0.90856153   -469.91495 
    7600    471.60075   -274.74725   -280.43468   -259.04821    303.15895    2.6063677  -0.88601335   -19.358856   -233.11847  -0.71836401   -19.755168    2.5920507  -0.86260372   -9.4977404    -233.1093   -0.6260129   -9.7000389    198.45841   -0.8001883   -19.856411  -0.89475675  -0.90854013    -469.9156 
    7700    471.60075   -270.42277   -260.29484   -259.81544    303.08957    2.6107013  -0.85605541   -19.338657   -233.11034  -0.75231843    -19.74965    2.5934328  -0.86022144   -9.4823764   -233.10483  -0.68342397   -9.7072775    198.48159  -0.77206004   -19.842694  -0.89425384  -0.90851873   -469.91625 
    7800    471.60075   -271.44555   -301.37477   -281.57365    303.24982    2.5965498   -0.8669034   -19.323397   -233.12344  -0.74209851    -19.71224    2.5599704  -0.89647838   -9.4621142      -233.11  -0.66427033   -9.6644518    198.49221  -0.76889263   -19.851443  -0.89375093  -0.90849733    -469.9169 
    7900    471.60075    -276.5883     -279.989   -281.90325    303.53807     2.574392  -0.85396405   -19.322031    -233.1356  -0.75588538   -19.713927    2.5296897  -0.85491639   -9.4510546   -233.11437  -0.67545911   -9.6737437    198.48975  -0.76290167   -19.863962  -0.89324803  -0.90847593   -469.91755 
    8000    471.60075   -319.74889   -270.05223   -248.16915     303.5273    2.5922661  -0.88729194   -19.338813   -233.14882  -0.75787883   -19.741283    2.5460235  -0.90302279   -9.4612685   -233.14691  -0.67022518   -9.7242005    198.50703   -0.7536008   -19.834994  -0.89274512  -0.90845453    -469.9182 
    8100    471.60075   -242.05686   -244.89396   -257.75395    303.37341    2.5816529  -0.86844995   -19.318318   -233.16355  -0.78592141    -19.73046     2.545177  -0.85248293    -9.488322   -233.16295  -0.69210648   -9.7279859     198.5025  -0.74998594   -19.856895  -0.89224221  -0.90843312   -469.91885 
    8200    471.60075   -252.90962   -279.02723   -236.94379    303.19821    2.5895079  -0.85832012   -19.338145   -233.16607  -0.81774244   -19.740683    2.5533665  -0.84274517   -9.4864041   -233.15225  -0.73542839   -9.7252311     198.4684  -0.71542394   -19.861306   -0.8917393  -0.90841172    -469.9195 
    8300    471.60075   -271.43562   -251.66022   -251.47199    303.40063    2.5675216  -0.86099812   -19.399697   -233.17158   -0.8206323   -19.734699    2.5084704  -0.87460276   -9.5111945   -233.15138  -0.73608872   -9.7527057    198.49413  -0.72364672   -19.850106  -0.89123639  -0.90839032   -469.92015 
    8400    471.60075   -276.22418   -262.63242   -203.13997    303.03881    2.5723738  -0.85739389   -19.387587   -233.17704  -0.80235306   -19.737454    2.5310993  -0.86727911   -9.4793792   -233.14876  -0.71293521   -9.7387644    198.49006  -0.71630359   -19.864463  -0.89073348  -0.90836892    -469.9208 
    8500    471.60075    -256.5135   -241.33273   -264.31387     303.3614    2.6048209  -0.85797906   -19.405945   -233.17823  -0.80861951   -19.740738    2.5613334  -0.87855385   -9.5011764   -233.16106  -0.74597   -1.0247062   -9.6951442    198.11649  -0.88514695   -20.157848  -0.92727418  -0.90876976   -469.98015 
    8600    471.56228   -187.91098   -176.52823   -240.58067    303.45293    2.1215971  -0.83848949   -19.065623   -233.13585   -1.0074583   -19.769828    2.0747234  -0.80359997   -9.4624771   -233.15769     -1.03071   -9.7226267    198.08843  -0.86708079   -20.155559  -0.92706254  -0.90874667   -469.97984 
    8700    471.56228   -221.20671   -206.95055   -213.15983    303.80716    2.1024183  -0.85143454   -19.080723   -233.16195  -0.98135349   -19.787213     2.058174  -0.82048646   -9.4907346   -233.19925  -0.98434721   -9.7513129    198.08214  -0.89864852   -20.185207  -0.92685091  -0.90872358   -469.97954 
    8800    471.56228    -183.5702   -121.56798   -211.95244    304.06827    2.1015507  -0.86273495   -19.089253   -233.14993  -0.96061202   -19.799767     2.050408  -0.81772746   -9.4799667   -233.17515  -0.96047227   -9.7885123    198.06798  -0.90125108   -20.194108  -0.92663928  -0.90870049   -469.97923 
    8900    471.56228   -121.58646   -114.09998   -140.93925    303.73533    2.1123339  -0.87553014   -19.097958   -233.19036  -0.95531299   -19.849144    2.0454377  -0.82939242   -9.4761476   -233.20226  -0.96315177   -9.8052358    198.05801  -0.89293237   -20.227238  -0.92642764   -0.9086774   -469.97892 
    9000    471.56228   -104.28492   -90.219855   -132.02829    303.48262    2.1209298   -0.8880825    -19.12821   -233.18369  -0.94227844   -19.901121    2.0713187  -0.84195884   -9.5193725   -233.17553  -0.94984481   -9.8609537    198.03576  -0.86494786   -20.265613  -0.92621601  -0.90865431   -469.97862 
    9100    471.56228   -136.92697    -88.54713   -146.55933    303.35354    2.1057739  -0.87615405   -19.139511   -233.17751  -0.96737385   -19.931481     2.040544  -0.82282761   -9.5401579   -233.17813  -0.98176338   -9.8914774    198.04549  -0.85491979    -20.28916  -0.92600437  -0.90863122   -469.97831 
    9200    471.56228   -92.975658    -111.1749    -146.1017    303.76922    2.0896829   -0.8924511    -19.14486   -233.16244  -0.94578831   -19.955208    2.0225849  -0.84630915   -9.5422447   -233.16014   -0.9605402    -9.904754    198.03977  -0.85609767   -20.293247  -0.92579274  -0.90860813   -469.97801 
    9300    471.56228   -124.78403   -79.702881   -117.30127    303.34532    2.0763585  -0.90107931   -19.156432   -233.16158  -0.92282334   -19.960966    1.9909504  -0.84096187   -9.5275592   -233.15343  -0.93890927   -9.9353352    198.04043  -0.87731672   -20.312791  -0.92558111  -0.90858504    -469.9777 
    9400    471.56228   -72.018384   -96.746357   -95.909402     303.5095    2.0924084  -0.89519814   -19.154747   -233.16125  -0.93734618   -19.955947    2.0109606  -0.84310381    -9.525394   -233.15711  -0.93054394   -9.9419389    198.05818  -0.88465649   -20.324139  -0.92536947  -0.90856195   -469.97739 
    9500    471.56228    -107.1748   -40.355063   -90.767534    303.79662    2.0822819  -0.88670473   -19.139881   -233.15968   -0.9677852   -19.959008     2.001037  -0.85241287   -9.5235878   -233.17559  -0.97784332   -9.9373206    198.08389   -0.8944049   -20.320437  -0.92515784  -0.90853886   -469.97709 
    9600    471.56228   -69.922768   -65.409585    -50.91822    303.50901    2.0943247  -0.89149076   -19.158186   -233.14744  -0.96934648   -19.976236    2.0145667  -0.86797922    -9.547308   -233.15474  -0.99644452   -9.9711547    198.10321   -0.8999924   -20.344147   -0.9249462  -0.90851577   -469.97678 
    9700    471.56228    -55.97459   -43.436996   -18.828329    303.74011    2.1075271  -0.87097951   -19.166627    -233.1464  -0.94289092   -20.026952    2.0364293  -0.81045322   -9.5731819   -233.15805   -0.9671125   -10.009249    198.10545  -0.89472055   -20.374286  -0.92473457  -0.90849268   -469.97648 
    9800    471.56228   -38.160609   -25.800916    -46.63592    303.71957    2.1157313  -0.87436492   -19.191102   -233.15174  -0.96348946   -20.035028    2.0581832  -0.79847053   -9.6093687   -233.17262   -1.0110516   -9.9985402    198.13155   -0.8644995   -20.384354  -0.92452294  -0.90846959   -469.97617 
    9900    471.56228   -71.158284   -25.052706    -27.01764    304.02098    2.1384851  -0.87485533   -19.225392   -233.12279  -0.97642413   -20.048201    2.0897199  -0.81207142   -9.6603113   -233.14836   -1.0028515   -10.044954    198.12415  -0.88176581    -20.41586   -0.9243113   -0.9084465   -469.97586 
   10000    471.56228   -44.076407   -27.116933   -42.783363    303.47789    2.1059481  -0.89827077   -19.253311   -233.09568   -1.0083684   -20.050239     2.047681   -0.8531972   -9.6867449   -233.11303    -1.030937   -10.053079    198.15848  -0.86683974   -20.445934  -0.92409967  -0.90842341   -469.97556 
   10100    471.56228   -22.962115   -9.7128264   -11.559398    303.73146    2.0869611  -0.90858507   -19.212791   -233.07856   -1.0122834   -20.050422    2.0512885   -0.8691029   -9.6663855   -233.08897   -1.0105565    -10.00517    198.19123   -0.8820534   -20.431632  -0.92388804  -0.90840032   -469.97525 
   10200    471.56228    16.354529 -0.021671036    11.242937    303.48533    2.0825163  -0.89740262   -19.226741   -233.08022   -0.9958256   -20.032037    2.0244138   -0.8408179   -9.6591557   -233.08721   -1.0318789   -9.9726707    198.18636  -0.91493717   -20.474629   -0.9236764  -0.90837723   -469.97495 
   10300    471.56228   -24.057795   -4.3808854   -13.180916    304.01624    2.0753772   -0.8563443   -19.236268   -233.06806  -0.98149749   -20.041034    1.9982652   -0.8033174   -9.6652642   -233.07139   -1.0057327   -9.9821346    198.18778  -0.94293101   -20.491129  -0.92346477  -0.90835414   -469.97464 
   10400    471.56228   -26.527515   0.40253729    15.311235    303.87641    2.0828584  -0.86418047   -19.223717   -233.05235  -0.98293484   -20.056599     2.002647   -0.8224071   -9.6631227   -233.04887  -0.99048079   -9.9696752    198.20035  -0.94162224   -20.463949  -0.92325313  -0.90833105   -469.97433 
   10500    471.56228    11.203406     31.57178     9.084933    303.63059     2.107388  -0.85258646   -19.195566   -233.04582  -0.96900184   -20.058635    2.0422442  -0.81289094    -9.631365   -233.05373  -0.98255291   -9.9755112    198.20971  -0.94759337   -20.458949   -0.9230415  -0.90830796   -469.97403 
   10600    471.56228    16.871153    1.9845606    8.2980326     303.7513    2.0995759  -0.83649339   -19.175138   -233.03754  -0.96854895   -20.079322     2.059277  -0.80661554   -9.5823798   -233.02613  -0.98141515   -10.021787     198.2353  -0.94234274   -20.421964  -0.92282987  -0.90828487   -469.97372 
   10700    471.56228    12.094032   -20.834245    67.679629    303.65905    2.1011394  -0.83482277   -19.187286   -233.01449  -0.95041601   -20.078751    2.0535128  -0.81410662   -9.5961668   -233.00644  -0.97325484   -10.012134    198.22297  -0.94193888    -20.41175  -0.92261823  -0.90826178   -469.97342 
   10800    471.56228    30.756318    21.757845    43.380642    303.34862    2.0984497  -0.83634183   -19.173186   -233.01508  -0.94485414   -20.107655    2.0533878  -0.80014052   -9.5729248    -233.0032  -0.93447999   -10.047143    198.24083  -0.96265076   -20.406797   -0.9224066   -0.9082387   -469.97311 
   10900    471.56228    -7.475295   -14.788813    20.151793    303.84077    2.1080034  -0.82435222   -19.153913   -233.02699  -0.96848972   -20.122194    2.0613841  -0.74427198   -9.5555841   -233.01759  -0.96408631   -10.066544    198.22858  -0.94255041   -20.404531  -0.92219496  -0.90821561   -469.97281 
   11000    471.56228    24.250258    11.647299    28.684437    303.82279    2.1010885  -0.83793873   -19.166698   -233.01662  -0.97742763   -20.137426    2.0412547  -0.75530421   -9.5685933   -233.02309  -0.99903117   -10.053137    198.22705  -0.93338799   -20.410088  -0.92198333  -0.90819252    -469.9725 
   11100    471.56228    27.041429    63.952668     55.76182      303.593    2.0740279  -0.85957257   -19.158332   -233.02433  -0.97978713   -20.144598    2.0133531  -0.78585097    -9.579898   -233.06684   -1.0126805   -10.074436    198.24616   -0.9278494   -20.417617   -0.9217717  -0.90816943   -469.97219 
   11200    471.56228    71.681814    58.208.80781    303.29865    2.6721076  -0.88518812   -19.555776   -233.06114  -0.87061926   -20.070008    2.6266882  -0.86384842   -9.7163875   -233.07898  -0.80950825   -10.034316    198.65674  -0.84176243   -20.050603  -0.87665204  -0.90776968   -469.93902 
   11300    471.60075   -2.2526024    15.898285    168.30931    303.31888    2.6672667  -0.88080435   -19.552313   -233.06542  -0.84937144   -20.066952    2.6114861  -0.88219352   -9.6853441   -233.08128  -0.77733088   -10.034857    198.64834    -0.828683   -20.041969  -0.87614913  -0.90774828   -469.93967 
   11400    471.60075   -2.1127305    31.679727    118.35567    303.48164    2.6893177  -0.85062706   -19.545197   -233.05492  -0.83871752   -20.063782    2.6327746  -0.84250052   -9.6730583   -233.06556  -0.77667396   -10.024576    198.65726  -0.83039767   -20.065436  -0.87564622  -0.90772688   -469.94032 
   11500    471.60075    40.989199    22.328537    142.53018    303.32376    2.6989792  -0.86386006   -19.560393   -233.06969  -0.83799898   -20.065491    2.6611822  -0.85782536   -9.6860045   -233.06206  -0.79496222    -10.02884    198.65816  -0.84570295   -20.073291  -0.87514331  -0.90770548   -469.94097 
   11600    471.60075    38.888208     73.77612    181.23704    303.16362    2.7085185  -0.85651803   -19.540175   -233.05511  -0.83716199   -20.077723    2.6596728  -0.86381171   -9.6669198   -233.04957  -0.77948081   -10.024015    198.64793  -0.85484475   -20.087111   -0.8746404  -0.90768408   -469.94162 
   11700    471.60075    63.459968    69.590496    209.21115    303.26286    2.6993032  -0.86647824    -19.54196   -233.03845  -0.85976349    -20.04168    2.6434253  -0.87093687   -9.6891665   -233.01924  -0.76671983   -10.003417    198.65095  -0.83810071   -20.115031   -0.8741375  -0.90766267   -469.94227 
   11800    471.60075    40.714652    58.715798      198.526    303.58778    2.6966637  -0.86677229   -19.580768   -233.02786  -0.86392624   -20.027691    2.6563498  -0.89211947   -9.7134601   -233.00335  -0.76748677    -9.984103    198.65211  -0.83328975   -20.131461  -0.87363459  -0.90764127   -469.94292 
   11900    471.60075    81.482568    93.546652     204.9895    303.79838    2.6980275  -0.90613316   -19.593514   -232.99753  -0.83285727   -20.017883    2.6636293  -0.91760287   -9.7357724   -232.97235  -0.74485207   -9.9941709    198.64269   -0.8056581   -20.155265  -0.87313168  -0.90761987   -469.94357 
   12000    471.60075    100.41737    93.764346    232.33218    303.73313    2.7019902  -0.92880156   -19.620104   -233.00149  -0.81180205   -20.045706    2.6586565  -0.93164018   -9.7816657   -232.97969  -0.71871793   -10.033213    198.62364  -0.76638206   -20.152933  -0.87262877  -0.90759847   -469.94422 
   12100    471.60075    80.852647    108.12544    269.74885    303.48252    2.6999057   -0.9047311   -19.637345   -232.99907  -0.80005946   -20.047973    2.6599154  -0.91645166   -9.8087278   -232.97486  -0.72084824   -10.029968    198.64034  -0.76800444   -20.138423  -0.87212586  -0.90757707   -469.94487 
   12200    471.60075    97.457742     127.4679     291.7025    303.90427    2.7086386  -0.89374419   -19.652391    -232.9734  -0.79498718   -20.020796    2.6848385  -0.92087846   -9.8333264   -232.94569  -0.72032845   -9.9889725    198.64864  -0.79851536    -20.13248  -0.87162295  -0.90755567   -469.94552 
   12300    471.60075    181.07022    158.42196     287.9582    303.41636    2.6918798    -0.908384   -19.649725   -232.96769  -0.81170377   -19.994422    2.6676488  -0.91297985   -9.8398069   -232.96413  -0.73586934   -9.9849176    198.64872  -0.80585646   -20.130663  -0.87112004  -0.90753427   -469.94617 
   12400    471.60075     127.8633    197.71234    301.37297    303.48399    2.6897178  -0.90826733   -19.653346   -232.96801  -0.80505402   -19.979581    2.6872407  -0.91705542   -9.8085317    -232.9663  -0.73688736   -9.9731286    198.66063  -0.79471144   -20.147334  -0.87061713  -0.90751286   -469.94682 
   12500    471.60075    173.46932    144.53341    338.81574    303.59679    2.7036282  -0.93591551   -19.683296   -232.94444  -0.80995361   9033405   -20.057516    2.0778989   -0.9444066   -9.6019156   -232.97937  -0.92026142   -10.015286    198.22494  -0.85669736   -20.446286  -0.91880882  -0.90784617   -469.96791 
   12600    471.56228    236.44938    234.09075    350.54004    303.62855    2.1603313  -0.93610938   -19.216954   -232.99642  -0.87970886   -20.039317    2.0910572  -0.89987103   -9.6767938   -232.99789  -0.89312799   -10.001447    198.21094  -0.84134735   -20.461143  -0.91859719  -0.90782308   -469.96761 
   12700    471.56228    260.68554    254.54649    353.23127    303.58884    2.1795755  -0.91790688   -19.249842   -232.98824  -0.88137958   -20.034226    2.1227582  -0.85795439   -9.7119553   -232.97517   -0.9042587   -10.006072    198.22057  -0.83470814   -20.451817  -0.91838555  -0.90779999    -469.9673 
   12800    471.56228    258.22103    252.82155    368.84885    303.78654    2.1740319  -0.89522686   -19.277158   -232.98614  -0.91740715   -20.022925    2.1259167  -0.84414365   -9.7371265    -232.9625  -0.93735861   -9.9792297    198.22034  -0.83379826   -20.429756  -0.91817392   -0.9077769   -469.96699 
   12900    471.56228    242.34903    242.83424    375.93858    304.11135    2.1603442  -0.87344114    -19.26663   -232.97015  -0.93875005   -20.015638    2.1202635  -0.82879225   -9.6980958   -232.94484  -0.95830389   -9.9875423    198.20821  -0.87039631   -20.417763  -0.91796229  -0.90775381   -469.96669 
   13000    471.56228    289.18956    278.34401    360.43924     303.7358    2.1545321  -0.88277535   -19.290013   -232.97199  -0.93124267   -20.035745    2.1162105  -0.82465812   -9.7218406    -232.9364  -0.95267166   -10.013565    198.20562  -0.86232739   -20.412247  -0.91775065  -0.90773073   -469.96638 
   13100    471.56228    272.58339    254.40537    356.30601     304.0345    2.1716895  -0.90935966   -19.297379   -232.98609  -0.93121887   -20.034013    2.1242063  -0.84276968   -9.7266511   -232.97432  -0.95641484   -9.9809719    198.19414  -0.87150269   -20.399438  -0.91753902  -0.90770764   -469.96608 
   13200    471.56228    241.66014    262.74916    410.30916    304.06686    2.1665202  -0.91744087   -19.336696    -232.9712  -0.93072946   -20.048325     2.130049   -0.8762739   -9.7512331   -232.95509   -0.9671515   -9.9842257    198.20465  -0.88853886   -20.401448  -0.91732738  -0.90768455   -469.96577 
   13300    471.56228    297.45234    279.32028     393.4526    303.70207    2.1522403  -0.91785489   -19.322011   -232.97244  -0.94650392   -20.011683    2.1132178  -0.87617473   -9.7585544   -232.97547  -0.97467816   -9.9704967    198.18636  -0.87403467   -20.377236  -0.91711575  -0.90766146   -469.96546 
   13400    471.56228    286.00201    262.12417    379.52008    304.13269    2.1299185  -0.90636422   -19.322437   -232.98606  -0.94826918   -20.008218    2.1026814   -0.8578136   -9.7620686   -232.98832  -0.97102505   -9.9708535    198.18397  -0.87714875   -20.355259  -0.91690412  -0.90763837   -469.96516 
   13500    471.56228     258.3128    293.76926    381.58098    303.80106    2.1418795  -0.88676574   -19.329239   -233.00507  -0.94422502   -19.991222    2.0981987  -0.85295142   -9.7790993   -233.01187  -0.96255726   -9.9708811    198.19993  -0.90176115   -20.350735  -0.91669248  -0.90761528   -469.96485 
   13600    471.56228    298.18065    288.20706     418.0357    303.64661    2.1522034   -0.9022356   -19.344883   -233.01863  -0.96304826    -19.98958     2.109257  -0.87656056   -9.7944055   -233.00698  -0.99326619    -9.951787    198.21491   -0.9161885   -20.348865  -0.91648085  -0.90759219   -469.96455 
   13700    471.56228    306.81957    280.64671    394.53304    303.80862    2.1313258  -0.93205167    -19.33891   -233.00891  -0.94912886   -20.010656    2.1035661  -0.88221491   -9.7722134   -232.98635  -0.98171239   -9.9685356    198.20321  -0.90335828   -20.345051  -0.91626922   -0.9075691   -469.96424 
   13800    471.56228    296.69657    309.24638    407.31716    303.57634    2.1320564  -0.92720122   -19.347014   -233.02152  -0.93972123   -20.006582    2.1020777  -0.88604094   -9.7559857   -233.00087881   -9.8977651    198.66841  -0.87482131   -20.075772  -0.86357641  -0.90721324   -469.95593 
   13900    471.60075    171.06888    229.98744    341.80659    303.82526    2.7001021   -1.0138783   -19.716456   -233.01231   -0.8939923   -19.972967    2.6890154   -1.0001074   -9.8727084   -233.04086  -0.85151871   -9.9342977    198.67089  -0.87858289   -20.077336   -0.8630735  -0.90719184   -469.95658 
   14000    471.60075    179.10442    190.72072    370.36156     303.6817    2.7083513    -1.022039   -19.716288    -233.0153   -0.8744012   -19.974089    2.6987817   -1.0090376   -9.8673894    -233.0318  -0.81820005   -9.9297023    198.65937   -0.8742488    -20.04528   -0.8625706  -0.90717044   -469.95723 
   14100    471.60075    210.64834    233.66078    340.31658    303.35254    2.6958667   -1.0146797   -19.742724   -233.00078  -0.89735464   -19.953462    2.6650938   -1.0144334   -9.9115564   -233.00288  -0.84384018    -9.945926    198.65777   -0.9022792   -20.018868  -0.86206769  -0.90714904   -469.95788 
   14200    471.60075    159.78071    207.67477    355.61381    303.74001    2.7042078   -1.0101662   -19.728808   -232.99023  -0.89488461   -19.940016    2.6970071   -1.0094699   -9.9091489   -232.95452  -0.81042795   -9.9282383    198.64968  -0.90249838   -20.025423  -0.86156478  -0.90712764   -469.95853 
   14300    471.60075     168.9977    188.53954    325.47565    303.79863     2.676498   -1.0366013   -19.708914   -232.97934  -0.85951257   -19.993671    2.6660472   -1.0468622   -9.9094206   -232.94447  -0.76140823   -9.9663604    198.62581  -0.87504082    -20.02066  -0.86106187  -0.90710624   -469.95918 
   14400    471.60075    132.34041    179.87163    356.09957    303.86234    2.6675663   -1.0265527   -19.717603   -232.97108  -0.85396411    -20.00659     2.647433   -1.0501448   -9.9309196   -232.94169  -0.75523088   -9.9746681    198.63703  -0.87217604   -20.012966  -0.86055896  -0.90708484   -469.95983 
   14500    471.60075     132.9992    197.78714    330.32062    303.54051    2.6585399   -1.0028754   -19.720184    -232.9666  -0.84120353   -20.029555    2.6356637   -1.0499568     -9.92396   -232.94392  -0.74664686   -10.013664    198.62021  -0.85882374   -20.037205  -0.86005605  -0.90706343   -469.96048 
   14600    471.60075    135.25775    188.66167    341.21609    303.85992    2.6436131   -0.9774595   -19.701381   -232.96374  -0.83325578   -20.038445    2.6087679  -0.98849634   -9.8836169   -232.95543  -0.76154663   -10.010283    198.60285  -0.83162509   -20.030893  -0.85955314  -0.90704203   -469.96114 
   14700    471.60075    189.17601    155.95351    305.18656    303.59628    2.6135824  -0.95886721   -19.708631   -232.96333  -0.80326143    -20.02756    2.5693958  -0.97804256   -9.8722856   -232.94378  -0.74908307   -10.013347    198.62979   -0.8089976   -20.031506  -0.85905023  -0.90702063   -469.96179 
   14800    471.60075    125.07403    151.14263    353.71501    303.96202    2.6209669  -0.98185852   -19.718923   -232.97439  -0.80306277   -19.991164    2.5796041  -0.97631618   -9.8613307   -232.95423  -0.74229985   -9.9888651    198.62877  -0.82356774   -20.051796  -0.85854733  -0.90699923   -469.96244 
   14900    471.60075    137.22695    166.76698     320.7817    303.89833    2.6295596  -0.99794626   -19.713703   -232.97032  -0.79086835   -20.006714    2.5813693  -0.98219714     -9.84928   -232.95878   -0.7498449   -10.024105    198.63824  -0.81505467   -20.017252  -0.85804442  -0.90697783   -469.96309 
   15000    471.60075    140.28459    187.07269    305.94124    303.48655    2.6374649  -0.96997978   -19.709184   -232.96711   -0.8083729   -20.018694    2.6261065   -0.9542908   -9.8608725   -232.94984  -0.75184747   -10.030041    198.64276  -0.79602187   -20.033255  -0.85754151  -0.90695643   -469.96374 
   15100    471.60075    137.15028    193.66482    303.20964    303.50775    2.6473964  -0.93907315   -19.698246   -232.97103  -0.80763116   -20.023151    2.6334126  -0.93193715   -9.8306978   -232.96142  -0.73820723   -10.017764    198.62725  -0.77303869   -20.056723   -0.8570386  -0.90693503   -469.96439 
   15200    471.60075    176.29575    173.66684    321.52929    303.51454    2.6712797    -0.933672   -19.708135   -232.97321  -0.82658756   -20.012653    2.6569871  -0.93284668   -9.8385308   -232.95522  -0.73146097   -9.9868242    198.62604  -0.77515865   -20.052549  -0.85653569  -0.90691362   -469.96504 
   15300    471.60075    175.53232    147.74405    283.33853    303.13031    2.6732295  -0.93597392   -19.713851   -232.97024   -0.8205606   -20.035883    2.6553032  -0.93692671   -9.8462946   -232.94463  -0.71679281   -9.9996695    198.60242  -0.77669713   -20.018638  -0.85603278  -0.90689222   -469.96569 
   15400    471.60075    106.22911    135.98021    252.42691    303.60601    2.6689826  -0.92396046   -19.711004   -232.98733  -0.82678537    -20.02452    2.6499937  -0.92386119    -9.852027   -232.96251  -0.72665682   -9.9958283    198.60838  -0.76103707   -20.013054  -0.85552987  -0.90687082   -469.96634 
   15500    471.60075    100.45306    89.880456    231.52152    303.89066    2.6741214  -0.89321747   -19.725999   -232.98333  -0.82565866   -20.041727    2.6485774  -0.88641842   -9.8710866   -232.95744   -0.7431388   -10.008367    198.61511  -0.77392393   -19.957885  -0.85502696  -0.90684942   -469.96699 
   15600    471.60075    146.84126    91.779799    260.24604     303.4893     2.705603  -0.90095396   -19.732332   -232.99202  -0.83163622   -20.026508    2.6659928  -0.89266667   -9.8819734   -232.97628  -0.76440218    -9.989318    198.63702  -0.81215085   -19.967684  -0.85452406  -0.90682802   -469.96764 
   15700    471.60075    82.251415    114.14676    234.44508     303.8255    2.6920638  -0.92792241   -19.772333    -233.0008  -0.84879849   -20.012485    2.6641285  -0.89810274   -9.9271276   -232.96832  -0.73955682   -9.9801046    198.64748  -0.82614568   -19.980874  -0.85402115  -0.90680662   -469.96829 
   15800    471.60075    89.606109    80.855694    261.95923     303.1456      2.69301  -0.93425591   -19.780474   -233.01238   -0.8615985   -20.004423    2.6731223  -0.93301705   -9.9576127   -232.97908   -0.7695525   -9.9786777    198.64792  -0.82728635   -19.975877  -0.85351824  -0.90678522   -469.96894 
   15900    471.60075    69.403238     112.7281    196.70765    303.39325    2.6769649  -0.92072965   -19.748967   -232.99841  -0.87434226   -20.010748    2.6477489  -0.93715604    -9.929994   -232.96416   -0.8133561   -10.008603    198.63144  -0.82126658   -19.972091  -0.85301533  -0.90676382   -469.96959 
   16000    471.60075    74.748274    107.68999    256.31042    303.40839    2.6617448  -0.91921526   -19.771148   -232.99205  -0.85093544   -19.980945    2.6376751  -0.91986008   -9.9376934   -232.96136  -0.80463453   -9.9610542    198.62073  -0.83749802   -20.004196  -0.85251242  -0.90674241   -469.97024 
   16100    471.60075    102.35516    128.77825    294.35604    303.45587    2.6463274  -0.89234888   -19.775557   -232.97537  -0.86933777   -19.977127    2.6034391  -0.89763598   -9.9137633   -232.94643   -0.8158776    -9.977435    198.63277  -0.82681761   -20.009215  -0.85200951  -0.90672101   -469.97089 
   16200    471.60075    113.96659    150.28658    297.95974    303.38103    2.6518484  -0.91625028   -19.790817   -232.97378  -0.87589296   -19.970879     2.626466  -0.93012854   -9.9303247   -232.95804  -0.82981099   -9.9782152     198.6288  -0.80236893   -20.022639   -0.8515066  -0.90669961   -469.97154 
   16300    471.60075     127.6922    169.57843    272.86264    303.67278    2.6422614  -0.91595446   -19.805083   -233.00292  -0.87713238   -19.979077     2.607796  -0.92168425   -9.9313663   -233.00006  -0.79902426   -9.9537949    198.63038  -0.80935135   -20.027196   -0.8510037  -0.90667821   -469.97219 
   16400    471.60075    164.01909    171.57403    374.78938    303.57873    2.6241742  -0.90286441    -19.82979   -233.00919  -0.85819161    -19.97237    2.5882092   -0.9065345   -9.9600416   -232.98325  -0.79077314   -9.9673922    198.62888  -0.84517545   -20.022483  -0.85050079  -0.90665681   -469.97285 
   16500    471.60075    135.31225    211.52303    371.74683     303.6    303.83866    2.0121822  -0.82078313   -19.606986   -233.00168   -1.0297759   -19.907021    1.9542002  -0.78763535   -10.023591   -233.03312   -1.0659679   -9.8601518    198.17733  -0.88828582   -20.289931  -0.91034347  -0.90692259   -469.95568 
   16600    471.56228    287.01598    309.31956     419.4054    303.80126    2.0312649  -0.79350941   -19.575187   -232.98228   -1.0064838   -19.877012     1.969482  -0.77886024   -9.9827872   -232.99102   -1.0385816   -9.8241446     198.1814  -0.90578747   -20.269068  -0.91013183   -0.9068995   -469.95537 
   16700    471.56228    308.71323    312.96271    373.19969    304.10959     2.032862  -0.81613562   -19.601436     -232.989   -1.0072668   -19.878907    1.9716438  -0.79241541   -10.001833   -232.95925   -1.0510416   -9.8119168    198.17688  -0.88683246   -20.260708   -0.9099202  -0.90687641   -469.95506 
   16800    471.56228    282.13238    276.08345    387.22479    303.79151    2.0190039  -0.81152032   -19.651385   -232.95386  -0.98082274   -19.859332    1.9374658  -0.76562702   -10.076215   -232.90887   -1.0141297   -9.7923113    198.16472   -0.8982612    -20.27837  -0.90970856  -0.90685332   -469.95476 
   16900    471.56228    288.64955    318.41888    423.45346    303.79728    2.0258214  -0.80809914   -19.656219   -232.95124  -0.96431053   -19.832369    1.9419828  -0.73134684   -10.099721    -232.9158  -0.98158208   -9.7788767    198.15206  -0.89253782   -20.285835  -0.90949693  -0.90683023   -469.95445 
   17000    471.56228    282.52427    305.71378    405.73557    303.82448    2.0529608  -0.81457155   -19.647755   -232.95884  -0.97189477   -19.821849     1.989771  -0.73830656   -10.065755   -232.92495   -0.9706784   -9.7557837    198.15181  -0.86613145    -20.29093   -0.9092853  -0.90680714   -469.95415 
   17100    471.56228    313.98977    313.68983    416.87308    303.53524    2.0874418  -0.85665068    -19.64819   -232.94265  -0.96279853   -19.859208    2.0158086  -0.79790394   -10.078742   -232.91451  -0.95154467   -9.7965157    198.15408  -0.88640526   -20.292911  -0.90907366  -0.90678405   -469.95384 
   17200    471.56228    238.09178    290.56349    366.10732    304.19114    2.1289817  -0.86920022   -19.650583   -232.97738  -0.96758442   -19.864799     2.054487  -0.80863438   -10.091992   -232.94081  -0.96653258   -9.8044761    198.16089  -0.88348264   -20.265864  -0.90886203  -0.90676096   -469.95353 
   17300    471.56228    298.61776    271.76659    381.71245    303.96607    2.1143312  -0.86913855   -19.638308   -233.01159  -0.97478521   -19.866458    2.0517736  -0.82667221   -10.081274   -232.99213  -0.98821857   -9.8195921    198.17935  -0.90528772   -20.240717   -0.9086504  -0.90673787   -469.95323 
   17400    471.56228    295.08063    328.34132    371.03192    303.76841      2.12237  -0.87675782   -19.645087   -233.01753  -0.97394744   -19.882632     2.033868  -0.82727954   -10.078336   -233.02114  -0.99493103   -9.8459351    198.16518  -0.89372483   -20.241166  -0.90843876  -0.90671478   -469.95292 
   17500    471.56228     310.9534    312.96193    421.10927    303.65754    2.1152979  -0.87190786   -19.641731   -233.03085  -0.96113635   -19.901179    2.0409667  -0.83217245   -10.089552   -233.03681  -0.96836667   -9.8951385    198.18238  -0.89161141    -20.26826  -0.90822713   -0.9066917   -469.95262 
   17600    471.56228    291.19444    311.20904    330.03608    303.71222     2.132815  -0.90785917   -19.657787   -233.02796  -0.95293101   -19.904957     2.067053  -0.86196362   -10.092565   -233.03622  -0.98006552   -9.9244358    198.20545   -0.9054862   -20.262501  -0.90801549  -0.90666861   -469.95231 
   17700    471.56228    260.88828    270.71687    405.09458    303.66143    2.1273369  -0.89535922   -19.637678   -233.00365   -0.9336266   -19.881406    2.0562775  -0.85535169   -10.091439   -233.03619  -0.95904624   -9.8972942    198.18808  -0.91450815   -20.263931  -0.90780386  -0.90664552     -469.952 
   17800    471.56228    279.70518    280.15867    393.74921    303.92718    2.1468678  -0.92346078   -19.614458   -233.01212  -   -19.996431    2.6669663  -0.86742888   -9.9761434   -232.94759  -0.78290017   -9.9969723    198.65848  -0.82194418   -19.993863  -0.84346007  -0.90635719   -469.98195 
   17900    471.60075    122.93056    110.84329    288.40768     303.5731    2.7112251  -0.87431982   -19.829637   -232.95763  -0.88501761   -20.007005    2.6752443  -0.86866762   -9.9864168   -232.95874  -0.79748884   -9.9776965    198.63147  -0.81579913   -19.987421  -0.84295716  -0.90633579    -469.9826 
   18000    471.60075    113.34779    135.69861    297.30477    303.42744     2.707455  -0.87218708      -19.803    -232.9623  -0.89405558   -19.989573    2.6897204  -0.86705248   -9.9669528   -232.96667  -0.80865164   -9.9767451    198.64378  -0.82806292   -20.023944  -0.84245425  -0.90631439   -469.98325 
   18100    471.60075    102.07304    91.587455    287.63851    303.93813    2.7166323  -0.86569843    -19.81013   -232.94794  -0.84939508    -20.00341    2.7026119  -0.83826438   -9.9879129   -232.93429  -0.75925504   -9.9944214      198.648  -0.83123587   -20.032554  -0.84195134  -0.90629298    -469.9839 
   18200    471.60075    113.80471    129.45023      279.272    303.42933    2.7254746  -0.84411313      -19.791    -232.9384   -0.8446035   -19.971471    2.7281108  -0.81532475   -9.9777867     -232.936  -0.75720136   -9.9489214    198.63901  -0.83268803   -20.038075  -0.84144843  -0.90627158   -469.98455 
   18300    471.60075    99.754308    155.84249    275.61222    303.39101    2.7462198  -0.83469312   -19.760204   -232.95388  -0.84950438   -19.973488    2.7424771  -0.82884053   -9.9600059   -232.94252  -0.76100429   -9.9464273    198.61188  -0.83354584   -20.036546  -0.84094552  -0.90625018   -469.98521 
   18400    471.60075    135.86425    107.18858    280.15912    303.38422    2.7653421  -0.83655763   -19.738462   -232.96592  -0.84320546   -19.981707    2.7497029  -0.81857038   -9.9190149   -232.94379  -0.78648153   -9.9591172    198.62686  -0.84138434   -20.047751  -0.84044261  -0.90622878   -469.98586 
   18500    471.60075    90.338278    80.683513    261.15866    303.69693    2.7490832  -0.82974182   -19.762357   -232.97056  -0.86149929   -19.992666    2.7342973  -0.83470787   -9.9169151   -232.94058  -0.82482804   -9.9649397    198.63411  -0.82357379   -20.044976   -0.8399397  -0.90620738   -469.98651 
   18600    471.60075    131.58439    130.77409    241.60907    303.38978    2.7438702  -0.80147327   -19.743085    -233.0026  -0.87253435   -19.982796    2.7292338  -0.79286762   -9.8945043   -232.98359  -0.83290176     -9.95512    198.66285  -0.81707428   -20.023789   -0.8394368  -0.90618598   -469.98716 
   18700    471.60075    83.776793    69.572267    250.94648    303.68145    2.7460629  -0.82430257   -19.737424   -233.00716  -0.86225512   -19.986403    2.7475545  -0.82998862   -9.8999064   -233.01093  -0.81678675   -9.9498669    198.65777  -0.86096548    -20.02788  -0.83893389  -0.90616458   -469.98781 
   18800    471.60075    85.319484    116.56865    248.10019    303.52497    2.7144163  -0.79612278   -19.695222   -232.99104  -0.83556933   -19.983427    2.7071221  -0.82624738   -9.8538155   -232.98439  -0.76645564   -9.9706822    198.65013  -0.86455941   -19.995069  -0.83843098  -0.90614317   -469.98846 
   18900    471.60075    85.987383    127.51185    253.85171    303.43791    2.6911808  -0.81071731   -19.703079    -232.9783  -0.85066158   -19.989098    2.6579719  -0.82017572   -9.8594823   -232.97628  -0.76022448   -9.9824208    198.66082  -0.82481515   -19.967778  -0.83792807  -0.90612177   -469.98911 
   19000    471.60075    98.281044    111.66526    257.79954    303.56397    2.6959847    -0.837865   -19.709245   -232.97899   -0.8664905   -19.949829    2.6307634  -0.83135654   -9.8540232   -232.97162  -0.75562318   -9.9309298    198.66019  -0.80541239    -19.97643  -0.83742516  -0.90610037   -469.98976 
   19100    471.60075     64.41361    81.580108    233.45583    303.74169    2.6863097  -0.84144151   -19.697203   -232.97285  -0.84838242   -19.924488    2.6219031  -0.82554242   -9.8185765   -232.96619  -0.72741561   -9.9164105    198.66944  -0.80572096   -19.990387  -0.83692225  -0.90607897   -469.99041 
   19200    471.60075    70.598044    96.032614    204.61729    303.70571     2.672028   -0.8337795   -19.698273   -232.98027  -0.84118091   -19.944255    2.6149944  -0.83413853   -9.8516023   -232.96518  -0.72070085   -9.9281444    198.67979  -0.83415172   -20.012167  -0.83641934  -0.90605757   -469.99106 
   19300    471.60075    64.153183    106.54878    221.27413    303.63936    2.6666661   -0.8539091   -19.716358   -232.99286   -0.8422582   -19.943174    2.6227418  -0.85285196   -9.8782047   -232.99766  -0.74693359   -9.9152537    198.68625  -0.87041005   -20.021604  -0.83591643  -0.90603617   -469.99171 
   19400    471.60075     54.41714    86.899656    240.66035    303.50076    2.6798169  -0.88294378   -19.729833   -233.00606  -0.87597471   -19.956801    2.6256652  -0.89165946   -9.8870841   -233.00722   -0.8007038    -9.929024    198.70526  -0.85675874   -20.031769  -0.83541353  -0.90601477   -469.99236 
   19500    471.60075    57.542851    73.758252    182.55642    303.57703    2.6702496  -0.87446824    -19.75101   -233.01675  -0.88697347   -19.943551    2.6310547  -0.89335048   -9.9019404   -233.00787   -0.8353821   -9.9131034    198.71197  -0.82962355   -20.035291  -0.83491062  -0.90599336   -469.99301 
   19600    471.60075    44.984954    44.738738    139.95031    303.73485    2.6737357  -0.88388465   -19.772987    -232.9984  -0.84954361   -19.914936    2.6532495   -0.8891257    -9.942818   -232.99246  -0.80895528   -9.8775288    198.73442  -0.82040838   -19.996577  -0.83440771  -0.90597196   -469.99366 
   19700    471.60075    62.805987    70.018947     153.9924    303.23126    2.6938592  -0.88938753   -19.771704   -232.99501  -0.84386791   -19.926446    2.6850989  -0.87788048   -9.9448135   -232.97319  -0.78994659    -9.891143    198.73701  -0.81901448   -19.988849   -0.8339048  -0.90595056   -469.99431 
   19800    471.60075    16.743467    47.353918    154.44181    303.70363    2.6952996  -0.89239208   -19.779186   -232.97317  -0.85281784   -19.904641    2.6848776  -0.91681525   -9.9607441   -232.97127  -0.78654851   -9.8469752    198.71677  -0.80832094   -19.983019  -0.83340189  -0.90592916   -469.99496 
   19900    471.60075    21.482944    61.886555     169.5303    303.61989    2.6932729    -0.897716   -19.763874   -232.95066  -0.86388075   -19.924561    2.6481997  -0.91763197    -9.956172   -232.94624  -0.79273642   -9.8679577    198.69303  -0.80906139   -19.981389  -0.83289898  -0.90590776   -469.99561 
   20000    471.60075    38.187211    48.319237    166.19615    303.62502    2.7141834  -0.90497869   -19.758536   -232.94239  -0.87454288   -19.916077    2.6533537  -0.92022798   -9.9490328    -232.9166  -0.81201791   -9.8740549    198.68285  -0.84243222   -19.964007  -0.83239607  -0.90588636   -469.99626 
   20100    471.60075    23.972319     39.08299     144.4154    303.63827    2.7422074  -0.86825159   -19.742272   -232.92813  -0.85429264   -19.935334     2.669379  -0.86043607    -9.918571   -232.88329  -0.80674783   -9.9012818    198.71197  -0.84382677   -20.000353  -0.83189317  -0.90586496   -469.99692 
   20200    471.60075   -3.9225176    48.475621    119.96625    303.53778    2.7319833  -0.87605912   -19.728968   -232.94425  -0.82899669   -19.989222    2.6823959  -0.85666394   -9.9099286   -232.88824  -0.75173488   -9.9529076    198.71984  -0.83627627    -20.01996  -0.83139026  -0.90584356   -469.99757 
   20300    471.60075   -11.257225    13.735169     95.23277    303.52838    2.7300524  -0.87037312   -19.732952    -232.9323  -0.80851491   -19.966756    2.6946386  -0.84829973   -9.9150361   -232.87741  -0.71153013   -9.9567459    198.72722  -0.82212635   -19.994654  -0.83088735  -0.90582215   -469.99822 
   20400    471.60075   -1.1924771   -3.6011361    106.34266    303.42489    2.7537248  -0.88772406   -19.698669     -232.919  -0.80878854   -19.964568    2.7305059  -0.88951079   -9.8997023   -232.86384  -0.70424584   -9.9761116    198.70069  -0.81182717   -20.001442  -0.83038444  -0.90580075   -469.9988 -469.94375 
   20500    471.56228    5.9976924  -0.81871119    57.730273    303.84542    2.1590576  -0.95168726    -19.30584   -233.02921  -0.99209914    -19.81888    2.1115301  -0.90280798   -9.7388788   -233.00948   -1.0412546   -9.7629667    198.15943  -0.92233983   -20.240644  -0.90187811  -0.90599901   -469.94344 
   20600    471.56228   -2.5290384    24.556126    14.355557    303.59484    2.1570265  -0.95777723   -19.243652    -233.0232  -0.97036809    -19.82405    2.0788062  -0.88562436   -9.6957111   -233.02159  -0.99169197   -9.7901575    198.15879   -0.9545045   -20.280855  -0.90166648  -0.90597592   -469.94313 
   20700    471.56228   -23.070785   -6.0193621    30.338086    303.76731     2.150599  -0.95404408   -19.231743   -233.02608  -0.96281833   -19.852496    2.0503725  -0.90505486   -9.6758341   -233.01511  -0.97056586   -9.8305588     198.1499  -0.92347453   -20.282817  -0.90145484  -0.90595283   -469.94283 
   20800    471.56228     1.680523    12.471408    19.656744    303.81238    2.1291838  -0.94247243   -19.235916   -233.01207  -0.92900371    -19.87354    2.0249046  -0.88884241    -9.653814    -233.0168  -0.94220269   -9.8429708    198.16144  -0.91500625   -20.277543  -0.90124321  -0.90592974   -469.94252 
   20900    471.56228   -37.655216    6.0762453     40.41745    303.71717    2.1445466  -0.94752564   -19.223474   -233.00671  -0.92921334    -19.88162    2.0457821  -0.90610625   -9.6222449   -233.03386  -0.92663747   -9.8530649    198.17341  -0.90238601   -20.241149  -0.90103158  -0.90590665   -469.94222 
   21000    471.56228   -55.737584   -51.761605   -16.656219    304.18309    2.1400445  -0.94818521    -19.24157   -232.97918  -0.93062161    -19.89132      2.07431  -0.89503751   -9.6426047   -233.01425  -0.95681132   -9.8546701    198.14685   -0.9110729   -20.243293  -0.90081994  -0.90588356   -469.94191 
   21100    471.56228   -57.498698   -22.364928   -27.692804    303.69904    2.1304959  -0.94084828   -19.256068   -233.01933  -0.96850306   -19.900939     2.071754  -0.87023649   -9.6753458   -233.05024   -1.0046248   -9.8754415    198.13552  -0.91352402   -20.258761  -0.90060831  -0.90586047    -469.9416 
   21200    471.56228   -22.515557   -16.778387   -31.057738    303.54105    2.1200273  -0.95783906   -19.264844    -233.0342  -0.99674758    -19.86896    2.0645058  -0.89272742   -9.6784976   -233.05524   -1.0117753   -9.8489131    198.11739  -0.90285002   -20.267118  -0.90039667  -0.90583738    -469.9413 
   21300    471.56228   -36.187257   -42.218824   -55.680448    303.96269    2.1249636  -0.96381753    -19.23927   -233.02418   -1.0087515   -19.875552    2.0643933  -0.92482574   -9.6640881   -233.03173   -1.0301991   -9.8358248     198.1231  -0.92505171   -20.281503  -0.90018504  -0.90581429   -469.94099 
   21400    471.56228   -18.131797   -23.050522   -25.505847    303.77054    2.1156894  -0.94834651   -19.221086   -233.03481  -0.99518819   -19.882202    2.0404992  -0.90543776   -9.6503388   -233.03871   -1.0148479   -9.8372408    198.13768  -0.94668258   -20.294361  -0.89997341   -0.9057912   -469.94069 
   21500    471.56228   -73.621581   -39.729152   -46.591134    303.79239    2.1296323  -0.93360986   -19.255925   -233.04232  -0.99538142   -19.894695    2.0542417  -0.89487844   -9.6958561   -233.04098    -1.011557   -9.8634945    198.15024  -0.92326433   -20.289468  -0.89976177  -0.90576811   -469.94038 
   21600    471.56228    -89.51355   -46.673299   -80.136496    303.93487    2.1018172  -0.92704627   -19.235065    -233.0282  -0.98624855   -19.882294    2.0257268  -0.88464165   -9.6672557   -233.05161  -0.99330167   -9.8527587    198.14707  -0.91467016   -20.296684  -0.89955014  -0.90574502   -469.94007 
   21700    471.56228   -68.494377   -41.390842   -61.608817    303.62381    2.0857313  -0.94029197   -19.249538   -233.03923  -0.98284433   -19.860558    2.0185331  -0.89495143   -9.6637536    -233.0788  -0.98144068   -9.8325359    198.15658  -0.92319031   -20.303256   -0.8993385  -0.90572193   -469.93977 
   21800    471.56228   -52.061737   -25.909419   -37.780084    303.49638    2.0729028  -0.93258845   -19.252346   -233.01889  -0.97613794   -19.843527    2.0342241  -0.88116963   -9.6647974   -233.04506  -0.98385414   -9.8254709    198.17248  -0.94799105   -20.310107  -0.89912687  -0.90569884   -469.93946 
   21900    471.56228   -58.305382   -33.169906   -75.213698    303.91124    2.0707393  -0.91789958    -19.20686   -233.01264  -0.96355986   -19.856207    2.0451298  -0.86772064   -9.6452452   -233.04248  -0.99412083   -9.8446509      198.156   -0.9594041   -20.316134  -0.89891524  -0.90567576   -469.93916 
   22000    471.56228   -54.361326   -60.426794   -35.459299     303.5892    2.0317649  -0.92537613   -19.189344   -233.02549   -0.9910788   -19.860475    2.0101046   -0.8527248   -9.6610935   -233.04772   -1.0155874   -9.8195646     198.1834  -0.97123193   -20.310097   -0.8987036  -0.90565267   -469.93885 
   22100    471.56228   -60.702173   -78.137839   -71.317632    303.55178    2.0326501  -0.94554117   -19.177781   -233.04793   -1.0107864   -19.895692     1.987948   -0.8966517   -9.6661825   -233.05791   -1.0490809   -9.8557097    198.17827  -0.99362575   -20.303239  -0.89849197  -0.90562958   -469.93855 
   22200    471.56228   -107.77628   -76.140335   -134.76789    303.93037    2.0432518  -0.96025507    -19.17766   -233.05979  -0.99324491   -19.859985    2.0080524  -0.93310485    -9.650817   -233.05045  -0.99748704   -9.8155424    198.19884  -0.97418501   -20.319108  -0.89828033  -0.90560649   -469.93824 
   22300    471.56228   -120.22923   -97.807578   -135.45031    303.71615    2.0344148    -0.965778   -19.170581   -233.05171   -0.9880057   -19.841625    1.9979413  -0.94337602   -9.6391241   -233.04947  -0.98912676   -9.8030876    198.19385    -0.990314   -20.307741   -0.8980687   -0.9055834   -469.93793 
   22400    471.56228   -127.06296   -129.22882   -117.29402    303.64446    2.0113462  -0.98294053   -19.164381   -233.05191  -0.98900348   -19.857178     1.953891  -0.94581516   -9.6043752   -233.05926  -0.96999849   -9.8227302    198.21026   -0.9805996   -20.302261  -0.89785707  -0.90556031   -469.93763 
[...]
  999100    471.56228     219.0534    240.79796    333.94829    303.66605     4.141296  -0.63175995   -16.467117   -231.00829  -0.68923895   -17.006378    4.0571113  -0.59759769   -6.8999714   -231.04297  -0.71030236   -6.9565537    200.19457  -0.65902014   -17.450963    1.1691711  -0.68004465   -466.94997 
  999200    471.56228    210.14973    198.94689    347.84532    303.96399    4.1284591  -0.61964855   -16.491292   -231.02069   -0.6909725   -17.021257    4.0594451  -0.57767053   -6.9332341   -231.05353  -0.70697973   -6.9966118    200.18636  -0.67643741   -17.422311    1.1693828  -0.68002156   -466.94967 
  999300    471.56228    228.83286    242.49924    324.84927    303.83056    4.1276142  -0.62446007   -16.483929   -231.02897  -0.69248993   -17.046834     4.072824   -0.5759178   -6.9312193   -231.05714  -0.71937102   -7.0082788    200.18163  -0.71701947   -17.408138    1.1695944  -0.67999847   -466.94936 
  999400    471.56228    228.76729    297.62683    358.67308    303.71971    4.1279145  -0.63053768   -16.487195   -231.04261  -0.70602839   -17.055792    4.0773579   -0.5713675   -6.9581342   -231.08452  -0.71887719   -7.0032111    200.18016  -0.75081727   -17.434754     1.169806  -0.67997538   -466.94906 
  999500    471.56228    242.68859      273.852    351.42582    303.84808    4.1267417  -0.63755646   -16.464131   -231.03529  -0.73533317   -17.062654    4.0811127  -0.56490982   -6.9196502   -231.06168   -0.7637718   -7.0307197    200.18948  -0.74505851   -17.419632    1.1700177  -0.67995229   -466.94875 
  999600    471.56228    270.48487    304.05059    320.68096     303.7309    4.1258625  -0.66025644    -16.49373   -231.03572  -0.73568299   -17.074557    4.0897604  -0.61498665   -6.9549424   -231.07245  -0.74677266   -7.0382044    200.19542  -0.74951876   -17.420958    1.1702293   -0.6799292   -466.94844 
  999700    471.56228    263.55902    248.88624    351.75561    303.86463     4.129074  -0.68180508   -16.520937   -231.01814  -0.74001815   -17.076427    4.1026874  -0.63261919   -6.9665237    -231.0407  -0.75412417   -7.0333204     200.1938  -0.75551103   -17.408422    1.1704409  -0.67990612   -466.94814 
  999800    471.56228    249.38974    279.26738    363.79937     304.0063    4.1206871  -0.66663615   -16.540023   -231.01908  -0.75169325   -17.056329    4.0781277  -0.62790442   -6.9992448   -231.03447  -0.77864043   -7.0075241    200.19833  -0.72919473   -17.402111    1.1706526  -0.67988303   -466.94783 
  999900    471.56228    271.09311    302.29332      363.121    303.84481     4.104837   -0.6867921   -16.522022   -231.01169  -0.76368633   -17.065414    4.0645108  -0.63665018   -6.9921326   -231.03117  -0.79737534   -7.0041535    200.20026  -0.72550097   -17.414298    1.1708642  -0.67985994   -466.94753 
 1000000    471.56228    262.39869    254.48285     415.3149    303.80419    4.0901173  -0.66670074   -16.540702   -231.00349  -0.77444451   -17.040604    4.0426726  -0.60045505   -7.0071257   -231.00525  -0.79261907   -6.9898499    200.18333  -0.70047862   -17.406672    1.1710758  -0.67983685   -466.94722 
 1000100    471.56228    236.38008    289.28739    364.49005    304.26281     4.077954  -0.67069933   -16.523798   -230.99487  -0.78177098   -17.040648    4.0286484  -0.62014859   -6.9751857   -230.98959  -0.79465493   -6.9869728    200.16949  -0.68998234    -17.41063    1.1712875  -0.67981376   -466.94692 
 1000200    471.56228     237.9479    280.40388    367.96141    304.04185    4.0926013  -0.68738375   -16.505484   -230.99855  -0.76947647   -17.013952    4.0237721  -0.64793866   -6.9541887    -231.0122  -0.77640282   -6.9569125    200.15183   -0.6829192   -17.435799    1.1714991  -0.67979067   -466.94661 
 1000300    471.56228    314.78872     273.0647    387.82867    303.86575    4.0973522  -0.69437289   -16.522123   -230.96696  -0.76939503   -16.988792    4.0263348  -0.66449258   -6.9671431   -230.97947  -0.80555457   -6.9658612    200.15906  -0.67328663    -17.42036    1.1717107  -0.67976758    -466.9463 
 1000400    471.56228    231.12805    297.78127    368.62178    304.08312    4.0921096  -0.68994538   -16.529986   -230.98063  -0.76926341   -16.989303    4.0224026  -0.67710951   -6.9792584   -230.98321   -0.8025965   -6.9624497    200.14371  -0.67232275   -17.406349    1.1719224  -0.67974449     -466.946 
 1000500    471.56228    248.66859    298.14718    353.66119    303.79444    4.0846507  -0.67363581   -16.544043   -230.98519  -0.74574299   -16.987009    4.0059713  -0.66028917   -6.9700664   -230.98408  -0.77726766     -6.97728    200.12502  -0.64521798   -17.396128     1.172134   -0.6797214   -466.94569 
 1000600    471.56228    229.99166    282.24309    316.11582    304.06295    4.1040773  -0.67097982   -16.528116   -230.98006  -0.70652897   -16.983844    4.0371706  -0.62361558   -6.9589014   -230.98457  -0.70695966   -6.9722488    200.14606  -0.64349457   -17.394468    1.1723456  -0.67969831   -466.94539 
 1000700    471.56228    262.90862    229.37184    349.60011    303.52938    4.1203261  -0.69518547   -16.533689   -230.98342  -0.70367217   -16.972937    4.0584881  -0.63201742   -6.9625846   -230.99981  -0.69039859    -6.959684    200.14787  -0.65086075   -17.382189    1.1725573  -0.67967522   -466.94508 
 1000800    471.56228    258.60584    248.49244    301.03011    303.93159    4.1230221  -0.70199947   -16.571409   -230.98235  -0.69439514   -16.954878    4.0731787  -0.64657189   -7.0183705   -230.99283  -0.68145555   -6.9290079    200.14234  -0.63783508   -17.381421    1.1727689  -0.67965213   -466.94477 
 1000900    471.56228    256.38636    232.61144    350.49845    304.23405    4.1273334  -0.70486762   -16.563858   -231.00205  -0.70209102   -16.941878    4.0811147  -0.65429198    -7.013217   -231.02055  -0.70920816   -6.9194374    200.13926  -0.63370507   -17.379927    1.1729805  -0.67962904   -466.94447 
 1001000    471.56228       243.74    250.66011    323.78352    303.71685    4.1386016  -0.66631721   -16.527744   -231.00801  -0.69899941   -16.915858     4.081704   -0.6244061   -6.9975135   -231.00757  -0.70553709   -6.8776921    200.13088  -0.61654017   -17.358797    1.1731922  -0.67960595   -466.94416 
 1001100    471.56228    245.39342    251.47631    315.04708    303.80133    4.1593401  -0.63664892   -16.551169   -231.01283  -0.69864516   -16.900562    4.1109356  -0.59607323    -7.026484   -231.02263  -0.70258212   -6.8899831    200.13957  -0.60860951   -17.360225    1.1734038  -0.67958286   -466.94386 
 1001200    471.56228    236.47809    256.67878    285.40982    303.73293    4.1554339  -0.63904468   -16.590794   -231.00893  -0.66420899   -16.930169    4.0957347  -0.59400774    -7.063259   -231.01737  -0.67337506   -6.9135376    200.14047  -0.61582174   -17.347774    1.1736154  -0.67955977   -466.94355 
 1001300    471.56228    238.02051    220.54785    328.72679    303.77707    4.1465903  -0.66411867   -16.583125   -230.99627  -0.66741444   -16.933322    4.0681265  -0.59495236   -7.0586073   -231.00192  -0.67018557   -6.8961848    200.14323  -0.61027272   -17.326223    1.1738271  -0.67953668   -466.94324 
 1001400    471.56228    213.97241    293.83985    292.18877    303.73005    4.1423437  -0.66499363   -16.563233   -231.00256  -0.68040968   -16.912072    4.0697771  -0.60884223    -7.052174   -230.99335  -0.68940862   -6.8620612    200.15715  -0.62120885   -17.320611    1.1740387  -0.67951359   -466.94294 
 1001500    471.56228    234.11382    224.06075    310.20541    303.72793    4.1569149  -0.67753331   -16.552861   -231.01286     -0.69735   -16.900888     4.078164  -0.62708005    -7.017671   -231.01014  -0.71072513   -6.8679124    200.15768   -0.6245183   -17.311985    1.1742503   -0.6794905   -466.94263 
 1001600    471.56228    186.66138    221.86515    278.12633      303.906    4.1691768  -0.67751097   -16.535618   -231.01556  -0.69378854   -16.925019    4.0985716   -0.6301044   -6.9850783   -231.02108  -0.73165218   -6.8712581    200.16163  -0.63232651   -17.277144     1.174462  -0.67946741   -466.94233 
 1001700    471.56228    194.47588    262.59105    315.26775    303.86829    4.1763529  -0.68318427   -16.524096   -230.98784  -0.68391279   -16.917015     4.113137  -0.63225729   -6.9559071   -230.97396  -0.72393999   -6.8444609    200.17727  -0.64602448   -17.249714    1.1746736  -0.67944432   -466.94202 
 1001800    471.56228    211.15331    192.88178     288.7548    304.00323    4.1956255  -0.68923471   -16.490009   -230.99038  -0.68876394   -16.930003    4.1441205  -0.64926881   -6.9168443   -230.97951  -0.73151114   -6.8687748    200.18685  -0.66004286   -17.214188    1.1748852  -0.67942123   -466.94172 
 1001900    471.56228    223.36649    193.41952    269.94495    303.78027    4.2094684  -0.69801674   -16.494814   -231.00468  -0.71430593   -16.927199    4.1587054  -0.66566514   -6.9212794   -231.00158  -0.72481292   -6.8847502    200.18859  -0.63054217   -17.217141    1.1750969  -0.67939814   -466.94141 
 1002000    471.56228    187.44325    235.42166    307.69037    303.84738    4.2168451  -0.68560684   -16.471168   -230.98203  -0.69893251    -16.91466    4.1700364  -0.64514845   -6.9047782   -230.98427  -0.69804761   -6.8714002      200.198  -0.64032212   -17.234071    1.1753085  -0.67937506    -466.9411 
 1002100    471.56228    209.99029    220.03151     274.2055    304.12713    4.2223229  -0.65538689   -16.476704   -230.95393  -0.72105454   -16.921843    4.1985989  -0.60168769   -6.9219294   -230.95009  -0.69499144   -6.8892988     200.2042  -0.66031495   -17.226886    1.1755201  -0.67935197    -466.9408 
 1002200    471.56228    227.50842     246.1196    310.83891    303.72916    4.2197518  -0.64900971   -16.501772   -230.93797  -0.72199841   -16.926563     4.211472  -0.59098312   -6.9103806    -230.9354  -0.72996479    -6.913372    200.18376  -0.70270943   -17.237949    1.1757318  -0.67932888   -466.94049 
 1002300    471.56228    200.92533    208.16998     295.9912    304.02376     4.207589  -0.64546089   -16.505926   -230.94881  -0.70944057   -16.905539     4.175916  -0.60746387   -6.9374624   -230.94595  -0.74580496   -6.8910768    200.16936  -0.70026631    -17.22632    1.1759434  -0.67930579   -466.94019 
 1002400    471.56228    209.30974    190.44836    317.06627    303.77477    4.2315852  -0.64700466   -16.502529   -230.94917  -0.70258969   -16.893651    4.1948618  -0.60861648   -6.9611204    -230.9277  -0.72187346   -6.8767611    200.19427  -0.69672141   -17.221678     1.176155   -0.6792827   -466.93988 
 1002500    471.56228    200.92491    205.72577    330.16995    303.58369    4.2167648  -0.62989031   -16.505264   -230.94484  -0.73182686   -16.895121    4.1740757  -0.58672465   -6.9648738   -230.90636  -0.75312837   -6.8765572    200.18113  -0.70201169   -17.200435    1.1763667  -0.67925961   -466.93957 
 1002600    471.56228       164.51    190.18413    261.86876    304.11186    4.2158854  -0.63632273   -16.488982   -230.94157  -0.74332432   -16.904482    4.1687185  -0.56224112   -6.9583497   -230.90181  -0.76996711     -6.88261    200.20612  -0.72313406   -17.214153    1.1765783  -0.67923652   -466.93927 
 1002700    471.56228    156.98587    143.88881     241.5549    304.12631    4.2181276  -0.65778897    -16.46096     -230.938  -0.74625071   -16.906155    4.1668463  -0.58038324    -6.930277   -230.92573  -0.76028289   -6.8837087    200.21353  -0.70653514   -17.222954    1.1767899  -0.67921343   -466.93896 
 1002800    471.56228    182.59748    181.90414     267.9442    303.74647    4.1944651  -0.66781253   -16.443948   -230.93988  -0.77121037   -16.911917    4.1273071  -0.60848617   -6.9231022   -230.92718  -0.78983701    -6.872875     200.2122  -0.70380848   -17.247582    1.1770016  -0.67919034   -466.93866 
 1002900    471.56228    162.16845    165.15818    232.74006    303.85479    4.1839111  -0.70930324   -16.443668   -230.93871  -0.79009794   -16.898648    4.1146657  -0.65626703   -6.9051666    -230.9338  -0.81053626   -6.8433107    200.23182  -0.71021937   -17.250431    1.1772132  -0.67916725   -466.93835 
 1003000    471.56228    134.61571    130.69604    220.72254     303.8855    4.1977721  -0.69631475    -16.45621   -230.91938  -0.77342412   -16.891734    4.1447102  -0.66065954   -6.9241979   -230.93974  -0.76484051   -6.8567402    200.21092  -0.71313802   -17.252264    1.1774249  -0.67914416   -466.93804 
 1003100    471.56228    121.42188    161.49188    202.76969    303.81779    4.1916464  -0.69715205   -16.482335   -230.92841  -0.76724849   -16.903998    4.1351762   -0.6633317   -6.9370788    -230.9689  -0.77294046   -6.8577083    200.21042  -0.72220002   -17.255142    1.1776365  -0.67912107   -466.93774 
 1003200    471.56228    141.46069    116.42246     191.8263    303.88435     4.200552  -0.70390413   -16.488399   -230.92883  -0.76197937   -16.905127    4.1625982   -0.6805914   -6.9112913   -230.97221  -0.79463728   -6.8379954    200.21337  -0.75108202   -17.237956    1.1778481  -0.67909798   -466.93743 
 1003300    471.56228    98.672576    117.52655    197.31577    303.84464    4.1748476  -0.68446237   -16.482965   -230.93569  -0.79049733   -16.901461    4.1238597  -0.65473288   -6.9176022   -230.98353  -0.79095752   -6.8575437    200.20538  -0.75757303   -17.251051    1.1780598  -0.67907489   -466.93713 
 1003400    471.56228    102.49039    103.34617    194.66547    303.91933    4.1634761   -0.6741244   -16.480561   -230.94246  -0.77622728    -16.89231    4.1070551  -0.64760548   -6.9458789   -230.97861  -0.79748712   -6.8647818    200.20576  -0.73981462   -17.235928    1.1782714   -0.6790518   -466.93682 
 1003500    471.56228    141.86762    123.98088    154.83972    303.60382    4.1384864  -0.66713856   -16.468594   -230.96261  -0.76996593    -16.89962    4.0736752  -0.61031862   -6.9278562   -230.97809  -0.78487373   -6.8653894    200.23125  -0.77200914   -17.227129     1.178483  -0.67902871   -466.93651 
 1003600    471.56228    104.98107    117.50013    131.67174    304.06054    4.1661782  -0.69056149   -16.447054   -230.96933  -0.81794662   -16.876906    4.0859234  -0.62465412     -6.91842   -230.97528  -0.85811949   -6.8424469    200.24871  -0.77737708   -17.229506    1.1786947  -0.67900562   -466.93621 
 1003700    471.56228    134.64189    97.177248    196.85088    303.56625    4.1694068  -0.69429322   -16.421596   -230.96464  -0.80368213    -16.89244    4.0958963  -0.65666806   -6.8783733   -231.00397  -0.83519237   -6.8509224    200.24472  -0.77087189   -17.223584    1.1789063  -0.67898253    -466.9359 
 1003800    471.56228    106.22104    146.85012     131.3846    303.76188    4.1946308  -0.70312079   -16.392434   -230.94405  -0.80701273   -16.862883    4.1342591  -0.64515517    -6.849253   -230.96813  -0.83348111   -6.8194381    200.25627  -0.73886682   -17.225341    1.1791179  -0.67895944    -466.9356 
 1003900    471.56228    118.13688    122.85264    159.70917    303.64577    4.1919357  -0.69753336   -16.368835   -230.94906  -0.83096691   -16.833414    4.1387995   -0.6178957   -6.8202239   -230.96204  -0.86406809   -6.7890434    200.25844  -0.72065183   -17.210409    1.1793296  -0.67893635   -466.93529 
 1004000    471.56228    75.454171    96.161624    127.38761    303.86741    4.1817827  -0.70535011   -16.361453   -230.94547  -0.80983167   -16.827925    4.1477126  -0.63426697   -6.8038567   -230.94966  -0.81218923   -6.8052091     200.2671  -0.72345164   -17.215425    1.1795412  -0.67891326   -466.93499 
 1004100    471.56228    68.224597    83.555096    141.39645    303.87821     4.208045  -0.72589274   -16.325539    -230.9367  -0.80849728   -16.833483    4.1891232  -0.65370737   -6.7626493   -230.94298  -0.79552998   -6.8276413    200.27712  -0.72699323   -17.193764    1.1797528  -0.67889017   -466.93468 
 1004200    471.56228    59.658532    43.264464    70.862028    303.72718    4.1934679  -0.76173814   -16.326041   -230.94082  -0.81796529   -16.819868    4.1905114  -0.67909834    -6.776645   -230.94795  -0.81401655   -6.8188885    200.28509  -0.73714296   -17.218282    1.1799645  -0.67886709   -466.93437 
 1004300    471.56228    34.652673    49.949546    65.983265    303.75818    4.2034264  -0.76696148   -16.337973   -230.93935  -0.79950997   -16.790667    4.1729762  -0.72597373   -6.7795535    -230.9365  -0.80746445   -6.7697967    200.29849  -0.73854939   -17.211194    1.1801761    -0.678844   -466.93407 
 1004400    471.56228    34.859686    19.299966    72.350097    303.56228    4.1973708  -0.76966439   -16.338561   -230.91304  -0.80266928   -16.765092    4.1532842  -0.74232139    -6.768076   -230.89422  -0.82392023   -6.7135798    200.29196  -0.73641613   -17.234298    1.1803877  -0.67882091   -466.93376 
 1004500    471.56228    23.877828    33.547818    61.901592    303.75152    4.1804463  -0.76751381   -16.337156   -230.90756  -0.81668945   -16.737536     4.108249  -0.73844155   -6.7748631   -230.90008  -0.85456604   -6.6881174    200.28428  -0.71315834   -17.223139    1.1805994  -0.67879782   -466.93346 
 1004600    471.56228    6.7995899    35.983452    67.962246    303.44455    4.2019081  -0.75303484   -16.354504   -230.92985  -0.78603254   -16.736706    4.1117685  -0.73692213   -6.7866157   -230.90031  -0.78886176   -6.6533532    200.25862    -0.717513   -17.209145     1.180811  -0.67877473   -466.93315 
 1004700    471.56228    11.749036    7.8762377   -7.5706745    303.88854    4.2062505  -0.75848904   -16.348271   -230.91502  -0.77959089   -16.742211    4.1061293  -0.72946766   -6.7874679   -230.90159  -0.81050621   -6.6531033    200.23723  -0.73199651   -17.193782    1.1810226  -0.67875164   -466.93284 
 1004800    471.56228    9.4814763     33.08914     33.84657    303.57578    4.2180341  -0.75962746   -16.365284   -230.92789  -0.81128257   -16.759326    4.1205581  -0.71628383   -6.8045369   -230.91715  -0.83224018   -6.6852197    200.25076  -0.74139011   -17.166913    1.1812343  -0.67872855   -466.93254 
 1004900    471.56228   0.07458606    6.2069283    62.855325    303.71223    4.2142306  -0.73812241   -16.383819   -230.94826   -0.8118984   -16.764006    4.1290933  -0.70174353   -6.8105869   -230.93251   -0.8119947   -6.6916189    200.24161  -0.76299803   -17.169054    1.1814459  -0.67870546   -466.93223 
 1005000    471.56228   -22.628203     48.25874   -10.629428    304.01486    4.2176711  -0.76912971   -16.379338   -230.92615   -0.8212259   -16.737165    4.1292762  -0.72958762   -6.8240319   -230.91933  -0.82808112   -6.6775332    200.22123  -0.76522924   -17.145106    1.1816575  -0.67868237   -466.93193 
Loop time of 12544.5 on 512 procs for 1000000 steps with 804528 atoms

Performance: 13.775 ns/day, 1.742 hours/ns, 79.716 timesteps/s
99.9% CPU use with 512 MPI tasks x no OpenMP threads

MPI task timing breakdown:
Section |  min time  |  avg time  |  max time  |%varavg| %total
---------------------------------------------------------------
Pair    | 3633.1     | 8114.1     | 8636.2     |1049.6 | 64.68
Neigh   | 0.11447    | 44.189     | 51.11      | 141.6 |  0.35
Comm    | 637.69     | 1362.7     | 3556.9     |1151.0 | 10.86
Output  | 7.0434     | 7.3258     | 7.6152     |   0.9 |  0.06
Modify  | 77.202     | 101.52     | 111.85     |  51.0 |  0.81
Other   |            | 2915       |            |       | 23.23

Nlocal:    1571.34 ave 1812 max 0 min
Histogram: 16 0 0 0 0 16 12 4 239 225
Nghost:    4445.9 ave 5040 max 0 min
Histogram: 16 0 0 0 1 21 10 0 48 416
Neighs:    109876 ave 127200 max 0 min
Histogram: 16 0 0 0 16 0 12 4 223 241

Total # of neighbors = 56256635
Ave neighs/atom = 69.925
Neighbor list builds = 7391
Dangerous builds = 0



Total wall time: 3:34:27
06

Total # of neighbors = 56251207
Ave neighs/atom = 69.9184
Neighbor list builds = 7305
Dangerous builds = 0



Total wall time: 3:29:33
tal wall time: 3:37:57
