LAMMPS (28 Jun 2014)
# ------------------------ INITIALIZATION ----------------------------
echo both
#log		log.c
units           metal
dimension       3
boundary        p p p
atom_style      atomic
shell         mkdir  cfg
shell         mkdir  dump


# ----------------------- ATOM DEFINITION & Force Field -------------
read_data     NPT_relaxed.data       ##Read file dumped from simulation 1
  orthogonal box = (-44.5686 -8.10339 -218.134) to (44.5686 8.10339 20.9163)
  3 by 1 by 5 MPI processor grid
  reading atoms ...
  15664 atoms
  reading velocities ...
  15664 velocities

pair_style      eam/alloy
pair_coeff  	  * * Al_wkg_MSMSE_2009.set Al

#---------------------- DEFINE Laser GERION and GROUP ----------------
region       R1  block -23  23  INF  INF  INF  5  units box
group        G1 region R1
8188 atoms in group G1
group        G2 subtract all G1
7476 atoms in group G2


#define     temperature/pressure calculation  group
variable    x1atom atom "x>=0  &&  x<4 &&  z>-40 && z<1"     ##NEW!!!!!!!!!!!!
variable    x2atom atom "x>=-44.57  &&  x<-40.57 &&  z>-40 && z<1"
variable    x3atom atom "x>=0  &&  x<4 &&  z>-20 && z<1"
variable    x4atom atom "x>=-44.57  &&  x<-40.57 &&  z>-20 && z<1"
variable    x5atom atom "x>=196  &&  x<200 &&  z>-40 && z<1"

group       x1atom variable x1atom
148 atoms in group x1atom
group       x2atom variable x2atom
153 atoms in group x2atom
group       x3atom variable x3atom
78 atoms in group x3atom
group       x4atom variable x4atom
80 atoms in group x4atom
group       x5atom variable x5atom
0 atoms in group x5atom


compute      COM1x x1atom com
compute      COM2x x2atom com
compute      COM3x x3atom com
compute      COM4x x4atom com
compute      COM5x x5atom com

compute      COMall all com

#Temperature profile
#variable      Tprofile atom 300*(1+(step/5000)*2.5*exp(z/40))
variable      Tprofile atom 300*(1+(step/5000)*2.5*exp(z/75))

# ------------------------- SETTINGS ---------------------------------
thermo          100
thermo_style    custom step lx pxx pyy pzz temp c_COM1x[1] c_COM1x[2] c_COM1x[3] c_COM2x[1] c_COM2x[2] c_COM2x[3] c_COM3x[1] c_COM3x[2] c_COM3x[3] c_COM4x[1] c_COM4x[2] c_COM4x[3]  c_COM5x[1] c_COM5x[2] c_COM5x[3] c_COMall[1] c_COMall[2] c_COMall[3]

timestep       0.002


compute dispall all displace/atom
# ---------------- Run Laser Material Interaction --------------------
#dump          1 all custom 1000 dump/z1dump.atom id type x y z c_dispall[1]  c_dispall[2]  c_dispall[3] c_dispall[4]
#dump          2 all cfg 100 cfg/*.cfg mass type xs ys zs
#dump_modify   2 element Al

#relax for 2 PS
#fix           1 all nvt temp 300.0 300.0 0.1
#run  1000
#unfix         1

fix           1  all nve
fix           3temp  G1  langevin  v_Tprofile  0  0.1  378411   #TEST ALL
run           5000
Memory usage per processor = 2.75195 Mbytes
Step Lx Pxx Pyy Pzz Temp COM1x[1] COM1x[2] COM1x[3] COM2x[1] COM2x[2] COM2x[3] COM3x[1] COM3x[2] COM3x[3] COM4x[1] COM4x[2] COM4x[3] COM5x[1] COM5x[2] COM5x[3] COMall[1 COMall[2 COMall[3 
       0    89.137283   -272.55051   -329.04786   -443.45707     298.7806    1.5680875  -0.49350152   -19.534435   -42.861721   -1.2007883   -19.448089    1.4699675  -0.43531821   -9.4912672   -42.624935   -1.2893464   -9.0034468            0            0            0   -1.0129237   -1.0129237   -88.479475 
     100    89.137283   -105.79907    -100.3091   -176.37469    300.95472    1.5668783  -0.52338835   -19.550523   -42.864396   -1.2273352   -19.457117    1.4607104  -0.49050659   -9.5018491   -42.593348   -1.3118064   -8.9893563            0            0            0    -1.013047   -1.0165491   -88.477555 
     200    89.137283   -278.06125   -297.85566   -291.61343    304.63481    1.5890606   -0.4803699   -19.542742   -42.871337    -1.197168   -19.428131    1.4936999   -0.4479824    -9.506177   -42.618224   -1.2934432   -8.9474232            0            0            0   -1.0125667   -1.0150018   -88.474138 
     300    89.137283    29.381761   -71.786384   -64.298266    308.49157    1.5931043  -0.46765248   -19.534266   -42.825639   -1.1282464    -19.42447    1.5054866  -0.46790277    -9.462944   -42.515586   -1.1870977   -8.9423111            0            0            0   -1.0086775   -1.0165783   -88.469497 
     400    89.137283    53.330358   -7.7620506   -208.65158    312.95441    1.5816224  -0.45353106    -19.46698   -42.832109   -1.1771727   -19.482821    1.4776287  -0.46614097   -9.4147899   -42.522433   -1.2186684    -8.981788            0            0            0   -1.0018386   -1.0162003   -88.458661 
     500    89.137283    189.84691    136.71915    171.31603    313.24001    1.5844853  -0.45603123   -19.455773   -42.811696   -1.1475702   -19.500481    1.4948001  -0.47401521   -9.3697021   -42.501532   -1.1674454   -9.0388427            0            0            0   -1.0063278   -1.0134779    -88.45296 
     600    89.137283    616.85529    650.84833    655.60032    319.08696    1.5769976  -0.53542702   -19.420458   -42.809005   -1.1445326   -19.530059    1.4758195  -0.52114959   -9.3242297   -42.537284    -1.198782   -9.0695356            0            0            0   -1.0097041    -1.015682    -88.45034 
     700    89.137283    703.90606    585.54758    712.97373    321.27714    1.5636508  -0.50850525   -19.424604   -42.812869   -1.1263918   -19.503157    1.4527774  -0.53647778   -9.3372743   -42.524796   -1.2371328   -9.0699005            0            0            0   -1.0115161   -1.0222465   -88.449207 
     800    89.137283    969.54045    943.94736     1181.262     325.4894    1.5976229   -0.5015894   -19.399107   -42.805286   -1.1538515   -19.525442    1.5032706  -0.53672254   -9.2945375    -42.52724   -1.2395692   -9.0757576            0            0            0   -1.0176583   -1.0284519   -88.450125 
     900    89.137283    1144.8239    1245.8853    1182.5497    329.26174    1.6030809  -0.50087683   -19.430671   -42.809562   -1.1434852   -19.508132    1.4979492  -0.49725587    -9.324195   -42.518042   -1.2085235   -9.0277472            0            0            0   -1.0220078   -1.0291966   -88.452243 
    1000    89.137283    1103.5825    1099.7001    1281.5561    331.97558    1.6177482  -0.48299061   -19.461318   -42.858402   -1.1395839   -19.487326    1.4772996  -0.47065767   -9.3407091   -42.583409   -1.1839113   -9.0335498            0            0            0   -1.0247369   -1.0288146   -88.457919 
    1100    89.137283    1223.6139    1344.2859     1215.451    336.10121    1.5867711  -0.49335258   -19.424232   -42.851324   -1.1829838   -19.520035    1.4853859   -0.5261754   -9.3598818   -42.602829   -1.2603909   -9.0345054            0            0            0   -1.0226128    -1.030481   -88.466499 
    1200    89.137283    1261.1547    1153.6615    994.56967    339.78143    1.6164715  -0.49885534    -19.42362   -42.836995   -1.2168066   -19.482149    1.4920673  -0.50689026    -9.314364   -42.602612   -1.3320245    -9.013445            0            0            0   -1.0239117   -1.0412757    -88.47538 
    1300    89.137283     1617.347    1531.2657     1268.072    347.63662    1.6553964  -0.51128798   -19.457028   -42.831065   -1.2493792   -19.447182    1.5562621  -0.49235377    -9.291767   -42.543231   -1.3784322   -8.9540682            0            0            0   -1.0274021   -1.0475873   -88.483135 
    1400    89.137283    1829.2183     1627.923    1105.9162     348.5418    1.6297778  -0.56700258    -19.43102   -42.808862   -1.2660998   -19.468228    1.5628471  -0.56105855   -9.2875609   -42.499327   -1.3343481    -9.002659            0            0            0   -1.0226717   -1.0549693   -88.491462 
    1500    89.137283    1669.5254    1732.8192    1085.9319    353.17807    1.6242529  -0.54736908   -19.430696   -42.782881   -1.2984559   -19.477953    1.4856735  -0.56385903   -9.2812261   -42.476276   -1.3564044   -8.9773631            0            0            0   -1.0183632   -1.0571448   -88.499611 
    1600    89.137283    1454.3781    1652.4342    849.63843    361.44978    1.6009577  -0.51182582   -19.432929   -42.756217   -1.3125384   -19.415371    1.4894215  -0.48004265   -9.2968249   -42.463679   -1.3930065   -8.9115675            0            0            0   -1.0130276   -1.0586777   -88.507265 
    1700    89.137283    1731.1612    1559.8213    989.21146     368.0826    1.6079292  -0.49528877    -19.42672   -42.763774   -1.3330891   -19.333937     1.495199  -0.43986823   -9.3106541   -42.498439   -1.4282109   -8.7819146            0            0            0   -1.0142754    -1.063249   -88.511798 
    1800    89.137283    1963.1357    2086.0558    1403.8557    370.93771    1.6101594  -0.47968622   -19.411816   -42.779641   -1.3067105   -19.349092    1.5176179  -0.41675643   -9.2931656    -42.50091   -1.4083338    -8.826296            0            0            0   -1.0162071   -1.0590731   -88.510294 
    1900    89.137283    2230.1644    2211.2454    1414.6671    380.13758     1.606082  -0.44103634   -19.317445   -42.764451   -1.2845899    -19.29829    1.4762527  -0.39173588   -9.1793257   -42.480722   -1.3671826   -8.7786663            0            0            0   -1.0211501   -1.0542865    -88.50174 
    2000    89.137283    2477.5972    2340.1164    1408.1602    383.52059    1.6132187  -0.49804286   -19.272562   -42.824771   -1.2880769   -19.401179    1.4750561  -0.45507682   -9.1552591   -42.552977   -1.3450402   -8.8614906            0            0            0   -1.0296574   -1.0525796   -88.490638 
    2100    89.137283    2377.3394    2318.0401    1359.1277    387.85777    1.6005214  -0.45422568   -19.267047   -42.893601   -1.1972828   -19.412194    1.4484622  -0.40009852   -9.0778511    -42.63892   -1.2501592   -8.9303274            0            0            0   -1.0365273   -1.0464328   -88.477994 
    2200    89.137283    2620.2258    2567.9026    1488.5082    391.39258    1.5936883  -0.46839926   -19.313567   -42.917057   -1.1839772   -19.352555    1.4640517  -0.42667299   -9.1281344   -42.669443   -1.2316575   -8.8865629            0            0            0   -1.0415981   -1.0441988   -88.470653 
    2300    89.137283     2772.346    2560.7189    1673.9692     398.5271    1.5574114  -0.49010524   -19.216203   -42.905618   -1.1998292   -19.245003    1.4315955  -0.44606465   -9.0374784   -42.639741   -1.2322844   -8.7227861            0            0            0   -1.0438093   -1.0418389   -88.463141 
    2400    89.137283    3024.1377    2820.5598      1665.82    397.51479    1.5684062  -0.51231975    -19.19464   -42.865688   -1.2430346   -19.206167     1.470406  -0.45238392   -9.0482941   -42.597157   -1.3175631   -8.6746791            0            0            0   -1.0460631    -1.039492   -88.454913 
    2500    89.137283    3276.6648    2961.5352    2043.1339    402.09918    1.5494704  -0.59041307     -19.1952   -42.837237   -1.2902901   -19.208269    1.4580718  -0.53948791   -9.0194882   -42.551673   -1.3703814   -8.6774265            0            0            0   -1.0412183     -1.04419   -88.455603 
    2600    89.137283    3302.5148    3265.5541    1966.3524    407.33543     1.554665  -0.50679623   -19.098815   -42.836593   -1.2735712   -19.209274    1.3996965  -0.45013028    -8.975927   -42.549954   -1.3449242   -8.5766165            0            0            0   -1.0370489    -1.043785   -88.455211 
    2700    89.137283    3345.8209    3107.3396    1890.1513    415.20506    1.5907848  -0.52726118   -19.146487   -42.826196   -1.2467301   -19.215572    1.4789823  -0.50010696   -8.9350701   -42.555961    -1.323014   -8.6036643            0            0            0   -1.0328569   -1.0431404   -88.454182 
    2800    89.137283    3167.4181    3085.3822    1741.2777    417.13695    1.6134065   -0.4982264   -19.080003   -42.760164   -1.2331927   -19.210506    1.4528325  -0.46158049   -8.8907949   -42.498983   -1.3599227   -8.6679785            0            0            0    -1.032133   -1.0400358   -88.447481 
    2900    89.137283    3628.1046    3509.7406    2078.6616    428.26766    1.6198799  -0.55835548   -19.127139   -42.769016   -1.2391703   -19.190377    1.4306843  -0.55874796   -8.9055203   -42.533455   -1.3504089    -8.688034            0            0            0   -1.0365565   -1.0391334   -88.444392 
    3000    89.137283     4042.057    3926.5923    2515.0001    427.93071     1.629973  -0.50184174    -19.17349   -42.769372   -1.1158427   -19.157055    1.4359476  -0.49361993   -9.0348288   -42.497419   -1.2483852   -8.6344684            0            0            0   -1.0442774   -1.0354362   -88.448915 
    3100    89.137283    4256.6237    3923.2637    2803.2933    428.39068    1.6222134     -0.48705   -19.165855   -42.810431   -1.1000751   -19.129478    1.4742491  -0.52543668   -9.0183505   -42.527494   -1.1786299   -8.5914281            0            0            0   -1.0541936   -1.0335891   -88.450811 
    3200    89.137283     4437.281    4344.4668    2906.9585    434.50268     1.620432  -0.51324682   -19.189356    -42.81908    -1.079349   -19.147269    1.4709266  -0.54477675   -9.0350114   -42.505962   -1.0621063    -8.592307            0            0            0   -1.0615354   -1.0256721   -88.456151 
    3300    89.137283    4390.0606    4476.0827    2771.0066       438.76    1.6350526  -0.55948873   -19.194934   -42.869544   -1.0779321   -19.164988    1.4786074  -0.54234921     -9.07817   -42.578574   -1.0326675    -8.580916            0            0            0   -1.0731131   -1.0236796   -88.458949 
    3400    89.137283    4733.2569    4746.5282    3161.8594    448.43288    1.5879216  -0.59192539   -19.148762   -42.849479   -1.0983409   -19.147897    1.4377226  -0.53796386   -8.9807327   -42.594338   -1.1724375   -8.4752784            0            0            0   -1.0794677    -1.023979   -88.460501 
    3500    89.137283    4719.9218    4469.7734    2857.2634      456.201    1.5685681  -0.55928706   -19.114533   -42.850951   -1.1439513   -19.150205    1.4692913  -0.52985948   -8.9337765   -42.589929   -1.2750615   -8.5333877            0            0            0   -1.0796563   -1.0215317    -88.45861 
    3600    89.137283    5258.9012    4832.0321    3406.3587     461.0219    1.5532387  -0.49278868   -19.125769   -42.887457   -1.1504925   -19.078637     1.435386  -0.50506536   -8.9020511   -42.613519   -1.2923699   -8.5093841            0            0            0   -1.0747017   -1.0229606    -88.46406 
    3700    89.137283    5052.3242    4912.7845    3441.9925    465.47113    1.6324588  -0.50918558   -19.078968   -42.876671    -1.209537   -19.087024    1.5255645  -0.49631939    -8.806355   -42.587265   -1.3624866   -8.5340106            0            0            0   -1.0800219    -1.023064   -88.462113 
    3800    89.137283    5284.3871    5368.5123    3804.8217    469.11609    1.6135381   -0.4761906   -19.098562   -42.838525   -1.2342023   -19.103372    1.4647547   -0.4532643   -8.8838456   -42.537653   -1.4084751   -8.6303086            0            0            0    -1.079464   -1.0199098   -88.464783 
    3900    89.137283    5310.3757    5237.1277    3468.0057    472.30216    1.5777015  -0.48610568   -19.095158   -42.856149   -1.2876939   -19.137372    1.4047255   -0.4546058   -8.8435718   -42.594633   -1.4167124   -8.5268159            0            0            0    -1.086368   -1.0203115   -88.467495 
    4000    89.137283     5459.977    5413.5497    3688.5414    480.12045    1.5354618  -0.47750389   -19.176084   -42.824987   -1.2736705   -19.090771    1.3669431  -0.42152578   -8.9870563   -42.525486   -1.3705182   -8.4616982            0            0            0   -1.0990818   -1.0206799   -88.475006 
    4100    89.137283    5581.6594    5162.4036    3678.3184    480.94846    1.5748611  -0.41298796   -19.205335   -42.851926    -1.272059   -19.061246    1.4554047   -0.3332802   -8.9063734   -42.579796   -1.3058546   -8.3607641            0            0            0   -1.1028873    -1.020907   -88.487089 
    4200    89.137283    5610.9103    5438.8328    3533.7243     489.7995    1.5619438  -0.47860248   -19.067597   -42.842703   -1.2340268   -18.975612    1.4075918  -0.41894168   -8.7442892   -42.516258    -1.259156    -8.328095            0            0            0   -1.1067717   -1.0222653   -88.491646 
    4300    89.137283    5635.3795     5748.436    3449.3528    487.87473    1.5977716  -0.52412819   -18.991827   -42.765624     -1.24731   -18.922395    1.4264041  -0.52324747   -8.6375168   -42.455026   -1.3031787   -8.3284879            0            0            0   -1.1032824   -1.0280828    -88.48928 
    4400    89.137283    5647.5558    5646.9998    3228.0599    502.57913    1.5766266   -0.4941792   -19.032888   -42.786163   -1.2435832   -18.876963    1.4245668  -0.49322205   -8.6739413   -42.464974   -1.3106424   -8.1744077            0            0            0   -1.0955295   -1.0348994   -88.492958 
    4500    89.137283    5822.1973    5700.7678    3424.7769    504.81557     1.634837  -0.50088507   -18.978827   -42.801256    -1.108412   -18.917464    1.5072594  -0.49560094   -8.6435467   -42.503673   -1.2013913   -8.2627718            0            0            0   -1.0832767   -1.0392172   -88.491852 
    4600    89.137283    5977.1646    5645.1348    3255.1677    512.69894    1.6293453  -0.53059357   -18.992833   -42.795616   -1.1173617   -18.911304    1.5622638  -0.55352156   -8.6894083   -42.479494   -1.2152506    -8.306797            0            0            0   -1.0745403    -1.045634   -88.492345 
    4700    89.137283    6313.0132    6124.9065    3502.2603    517.09371    1.7006999   -0.5357323   -18.989765   -42.812692    -1.181037   -18.840631    1.5764794  -0.59205498   -8.6958774   -42.582569   -1.2768878   -8.2396062            0            0            0   -1.0716075   -1.0455958   -88.497313 
    4800    89.137283    6239.3352    6009.3315    3417.9961    525.23223    1.6925244  -0.60079656   -19.012493   -42.809773   -1.2868877   -18.843623     1.558262  -0.62527501   -8.6775711   -42.547452   -1.3668502   -8.2130524            0            0            0    -1.075411   -1.0451597   -88.502472 
    4900    89.137283    6605.6903    6356.7204    3724.0717     536.1356    1.6937024  -0.60200314   -18.940318   -42.763271   -1.3221087   -18.762195    1.5840183  -0.63908083   -8.5886412   -42.480938   -1.4083801   -8.0829026            0            0            0   -1.0765813   -1.0461482   -88.502202 
    5000    89.137283    6839.6176    6545.4229    3860.9378     533.2311     1.690449  -0.61190915   -18.844747   -42.793643   -1.2667472   -18.806529    1.6025826  -0.70144369   -8.4650353   -42.469384   -1.3617845   -8.0562737            0            0            0   -1.0801112   -1.0448822   -88.493034 
Loop time of 34.8516 on 15 procs for 5000 steps with 15664 atoms

Pair  time (%) = 25.7202 (73.7992)
Neigh time (%) = 0.334065 (0.958535)
Comm  time (%) = 6.92859 (19.8803)
Outpt time (%) = 0.0560846 (0.160924)
Other time (%) = 1.81267 (5.20109)

Nlocal:    1044.27 ave 1440 max 229 min
Histogram: 3 0 0 0 1 2 0 0 1 8
Nghost:    3687.53 ave 4824 max 1376 min
Histogram: 3 0 0 3 0 0 0 0 0 9
Neighs:    73072.1 ave 102994 max 16222 min
Histogram: 3 0 0 0 3 0 0 0 1 8

Total # of neighbors = 1096081
Ave neighs/atom = 69.9745
Neighbor list builds = 84
Dangerous builds = 0


variable  com1_x equal "c_COM1x[1]"
variable  com1_y equal "c_COM1x[2]"
variable  com1_z equal "c_COM1x[3]"
variable  com2_x equal "c_COM2x[1]"
variable  com2_y equal "c_COM2x[2]"
variable  com2_z equal "c_COM2x[3]"
variable  com3_x equal "c_COM3x[1]"
variable  com3_y equal "c_COM3x[2]"
variable  com3_z equal "c_COM3x[3]"
variable  com4_x equal "c_COM4x[1]"
variable  com4_y equal "c_COM4x[2]"
variable  com4_z equal "c_COM4x[3]"
variable  com5_x equal "c_COM5x[1]"
variable  com5_y equal "c_COM5x[2]"
variable  com5_z equal "c_COM5x[3]"
variable  comall_x equal "c_COMall[1]"
variable  comall_y equal "c_COMall[2]"
variable  comall_z equal "c_COMall[3]"


fix          2 all print 100 "${com1_x}   ${com1_y}   ${com1_z}  ${com2_x}   ${com2_y}   ${com2_z} ${com3_x}   ${com3_y}   ${com3_z} ${com4_x}   ${com4_y}   ${com4_z} ${com5_x}   ${com5_y}   ${com5_z} ${comall_x}   ${comall_y}   ${comall_z}" file COM.data screen no
#-------------------------- Wave Propagation -------------------------
unfix        3temp
run          1000000
Memory usage per processor = 2.62695 Mbytes
Step Lx Pxx Pyy Pzz Temp COM1x[1] COM1x[2] COM1x[3] COM2x[1] COM2x[2] COM2x[3] COM3x[1] COM3x[2] COM3x[3] COM4x[1] COM4x[2] COM4x[3] COM5x[1] COM5x[2] COM5x[3] COMall[1 COMall[2 COMall[3 
    5000    89.137283    6839.6176    6545.4229    3860.9378     533.2311     1.690449  -0.61190915   -18.844747   -42.793643   -1.2667472   -18.806529    1.6025826  -0.70144369   -8.4650353   -42.469384   -1.3617845   -8.0562737            0            0            0   -1.0801112   -1.0448822   -88.493034 
    5100    89.137283    6308.4741     5919.243    3139.7247    535.05378     1.732457  -0.63459199   -18.753282   -42.786558   -1.2878461   -18.773735    1.6652458  -0.65611733   -8.3200273   -42.423457   -1.3596068   -8.0394934            0            0            0   -1.0873577   -1.0386587   -88.481584 
    5200    89.137283    6202.8821    5726.7725    2551.6624    528.87771    1.7142379  -0.49010924   -18.653504   -42.796417   -1.3173888    -18.69035     1.681116  -0.47381421   -8.2098835    -42.43037   -1.3957861   -8.0157422            0            0            0   -1.0946041   -1.0324353   -88.470134 
    5300    89.137283    5412.9933    5472.0666    2387.8408    527.99933    1.6622344  -0.41354291   -18.481037   -42.846946   -1.3110407   -18.671097    1.6035469  -0.37251824   -7.9980383   -42.483197   -1.4506163   -7.9897138            0            0            0   -1.1018506   -1.0262118   -88.458684 
    5400    89.137283    5278.7348    5146.4435    1679.8428    525.90367    1.5855591  -0.40831932   -18.258662   -42.805605   -1.3227653   -18.701748    1.4893367   -0.3609884   -7.7184375    -42.48569   -1.4168228   -7.9890777            0            0            0   -1.1090971   -1.0199884   -88.447234 
    5500    89.137283    4769.3828    4410.2414    893.59337    529.66339    1.6610306   -0.5286726   -18.080736   -42.846854   -1.3538505   -18.635741    1.5682467  -0.58008388   -7.5885917   -42.566469   -1.4767889   -7.9184714            0            0            0   -1.1163436    -1.013765   -88.435785 
    5600    89.137283    4141.2425    4215.6793   -93.109732     529.6623    1.6360726  -0.51883382   -17.984246   -42.891461   -1.3000438   -18.524759    1.5741337   -0.5528575   -7.4868144   -42.611644   -1.4732898   -7.8461147            0            0            0     -1.12359   -1.0075415   -88.424335 
    5700    89.137283    3779.1897    3916.2027   -768.85035    529.17153    1.6304448  -0.51632994   -17.875969   -42.887666   -1.2869144   -18.464066    1.5738066  -0.56633529   -7.3670043   -42.550241   -1.4311826   -7.7229812            0            0            0   -1.1308365   -1.0013181   -88.412885 
    5800    89.137283     3648.273    3443.3455   -1296.9968     526.7236    1.6081396  -0.46848936   -17.746533   -42.855046    -1.223174   -18.401037    1.5480673  -0.45122669   -7.1552097   -42.545313   -1.2949587   -7.6386223            0            0            0    -1.138083  -0.99509467   -88.401435 
    5900    89.137283    3577.1859    3333.0558   -1745.0701    522.91547    1.5231181    -0.506211   -17.750317   -42.875415   -1.1451713   -18.270204    1.4464571  -0.51642967   -7.1580979   -42.568498   -1.2025601   -7.5259367            0            0            0   -1.1453295  -0.98887124   -88.389985 
    6000    89.137283     2841.509    2821.8552   -2344.2163    526.03346    1.4848058  -0.55017513   -17.723001   -42.918927   -1.0742728   -18.176027    1.3832538  -0.51966181   -7.2426048   -42.609069   -1.1580249   -7.5063314            0            0            0   -1.1525759   -0.9826478   -88.378535 
    6100    89.137283    2475.4935    2674.6492   -2759.6636    521.35899    1.4598549  -0.56846422   -17.759329   -42.940585   -1.0301723    -18.08963    1.4055401  -0.58867994   -7.3092171   -42.645236   -1.0832011   -7.3421838            0            0            0   -1.1598224  -0.97642437   -88.367085 
    6200    89.137283    2338.9666     2289.437   -3328.7789    521.41093    1.4807176  -0.59749219   -17.865248   -42.986526   -1.1111515   -17.905222    1.3745448  -0.65047407   -7.4167236   -42.655605   -1.1857776   -7.1422048            0            0            0   -1.1670689  -0.97020093   -88.355635 
    6300    89.137283    2044.2871    2170.9726   -3664.2276    521.57014    1.4248247  -0.51028248   -17.887207   -43.043609   -1.1423618   -17.810806    1.2823442  -0.53254067   -7.4355034   -42.766507   -1.2266413   -7.0492155            0            0            0   -1.1743154   -0.9639775   -88.344185 
    6400    89.137283    2250.6478    2223.0396   -3872.1856    519.45791    1.3940966  -0.40856434   -17.934774   -43.064332   -1.1740326   -17.825349     1.260428  -0.31267696   -7.5481807   -42.785741   -1.2024999   -7.0178153            0            0            0   -1.1815618  -0.95775406   -88.332735 
    6500    89.137283     2290.499    1827.4289   -3840.5828    523.43534    1.3854713  -0.35452555   -17.972921   -43.039852   -1.2059005   -17.778565     1.213011  -0.22109787   -7.5611932   -42.789477   -1.2278241   -6.9472079            0            0            0   -1.1888083  -0.95153063   -88.321285 
    6600    89.137283    2295.0552    2099.1887   -3710.4263    525.07393    1.3247562  -0.28727008   -18.027026   -43.070915   -1.1926469    -17.81094    1.1785895  -0.13591362   -7.6086432   -42.848226   -1.1496477   -6.9559446            0            0            0   -1.1960548  -0.94530719   -88.309835 
    6700    89.137283     2956.487     2586.655   -2748.2992    528.13585    1.3400918  -0.29415833   -18.065568   -43.114609   -1.1830086   -17.704001    1.2170704  -0.18374342    -7.646918   -42.860522   -1.2350323   -6.8971425            0            0            0   -1.2033012  -0.93908375   -88.298385 
    6800    89.137283    2996.3834    3161.9828   -2182.7482    524.58653    1.3233009  -0.21216871   -18.126224   -43.120514   -1.1545205   -17.655996    1.1221177  -0.16807459   -7.7260393   -42.883247   -1.2394346   -6.8743729            0            0            0   -1.2105477  -0.93286032   -88.286935 
    6900    89.137283    3518.1264    3527.8277   -1448.0998    526.48062    1.2611575  -0.27076175   -18.097454    -43.16605   -1.1775528    -17.78939     1.044102  -0.27785077   -7.7449488   -42.941097    -1.319382   -6.9810508            0            0            0   -1.2177942  -0.92663688   -88.275485 
    7000    89.137283    3875.4971    3925.3837   -1109.4199    524.54993    1.2661658  -0.33629931   -18.109077   -43.238479    -1.244626   -17.991463    1.0784489  -0.38489852   -7.7766652   -43.052788   -1.3833007   -7.2231755            0            0            0   -1.2250407  -0.92041345   -88.264035 
    7100    89.137283    3924.5575    4195.6221    -213.2972    530.03454    1.2144035  -0.35290231    -18.08299   -43.212506   -1.1461036    -18.14589    1.0903907   -0.3414655   -7.7169574   -42.946982   -1.2347201     -7.42545            0            0            0   -1.2322871  -0.91419001   -88.252585 
    7200    89.137283    4591.4695    4484.3839    400.60972     533.1521     1.238837  -0.43823345   -18.061653   -43.183173   -1.0390332   -18.217706    1.0588654  -0.41677306   -7.6471708   -42.881297   -1.0927428   -7.4887642            0            0            0   -1.2395336  -0.90796658   -88.241135 
    7300    89.137283    5163.1811     5037.562    1425.9153    529.55712    1.1952043  -0.44420136   -18.092535   -43.219978  -0.95247052   -18.333139    1.1098986   -0.4474335   -7.6563022   -42.904689  -0.92899066   -7.5798002            0            0            0   -1.2467801  -0.90174314   -88.229685 
    7400    89.137283    5063.5672    5556.1596    2004.9124     531.1206     1.125605  -0.37380361   -18.142283   -43.254115  -0.93548531   -18.492304   0.98576374  -0.43629045   -7.7038223   -42.970885   -1.0271581   -7.7509429            0            0            0   -1.2540266  -0.89551971   -88.218235 
    7500    89.137283    5413.8144    5719.1119    2063.4842    530.47291    1.1473949  -0.41025609   -18.201403   -43.247135  -0.97753208   -18.549695     1.006134  -0.51241439   -7.7133748   -42.945191   -1.0975927   -7.7903172            0            0            0    -1.261273  -0.88929627   -88.206785 
    7600    89.137283     5803.967    6135.9126    2798.4695    536.56729    1.1323697  -0.41969973   -18.248606   -43.164057  -0.88896355   -18.633603    1.0421421  -0.50881278   -7.8238582   -42.883932    -1.019828   -7.8366053            0            0            0   -1.2685195  -0.88307284   -88.195335 
    7700    89.137283    5993.5491     6161.685    3107.3471    540.84194    1.1371116  -0.42607534   -18.164078    -43.24328   -1.0015412   -18.669461     1.022373  -0.46803268   -7.7659044   -42.981526   -1.1038861   -7.9880078            0            0            0    -1.275766   -0.8768494   -88.183885 
    7800    89.137283     6292.522    6346.1774    3369.0415    537.64518    1.1181297  -0.36170359    -18.22263   -43.294279   -1.0172837   -18.721984    1.0071357  -0.36214749   -7.9088776   -43.044911   -1.0776442   -8.0919433            0            0            0   -1.2830125  -0.87062597   -88.172435 
    7900    89.137283    6693.1016    6505.2626    3920.5343    535.21832    1.1698495  -0.30880738   -18.328591   -43.269051   -1.0606692   -18.718386   0.98357016  -0.22731879     -7.99656   -42.998074   -1.1574324   -8.0670874            0            0            0   -1.2902589  -0.86440253   -88.160985 
    8000    89.137283     6564.137    6792.1474    3780.5362    533.52638    1.1601799   -0.2044506   -18.440756   -43.271419   -1.1384852   -18.598578   0.99021206  -0.12306798   -8.1718812   -43.006543   -1.2756317   -7.9394287            0            0            0   -1.2975054   -0.8581791   -88.149535 
    8100    89.137283    6434.5073     6369.534    3355.9564    538.53317     1.136254  -0.15987965   -18.477605   -43.257609   -1.0628538   -18.443717    0.9294734  -0.13870028    -8.177233   -42.947308   -1.1660802   -7.6858126            0            0            0   -1.3047519  -0.85195566   -88.138085 
    8200    89.137283     6045.269    6041.5024    2637.9843    536.28262    1.1467998  -0.21730014   -18.494052   -43.282915     -1.08842   -18.303742   0.97996807  -0.18927776   -8.1731127   -43.012662   -1.1242942   -7.5568232            0            0            0   -1.3119983  -0.84573223   -88.126635 
    8300    89.137283    5744.0063    5612.5202    1954.3432    534.46341    1.1418392  -0.16019145   -18.432443   -43.315956   -1.1364607   -18.200364   0.97259233 -0.083985997   -8.0975388   -43.074984   -1.1676595   -7.4755044            0            0            0   -1.3192448  -0.83950879   -88.115185 
    8400    89.137283    5398.9859    5357.7086    2144.0997    533.65055    1.1590763  -0.17523405   -18.411867   -43.371438   -1.1793116   -18.036286     1.039377  -0.15246416   -8.0625641   -43.103463   -1.1878068   -7.2731178            0            0            0   -1.3264913  -0.83328536   -88.103735 
    8500    89.137283     4961.786    4871.2468    1137.1247      530.272    1.1556118  -0.20303527   -18.266624   -43.387671   -1.0924044   -17.839896    1.0546248  -0.15530122   -7.9454869   -43.103277   -1.1736673   -7.0278321            0            0            0   -1.3337378  -0.82706192   -88.092285 
    8600    89.137283    4496.7689    4753.4546    588.54187    527.17027    1.1662581  -0.26839195    -18.18492   -43.290429  -0.99816426   -17.683446    1.0341064  -0.19174024   -7.8910279   -43.017599   -1.1506767   -6.8824292            0            0            0   -1.3409842  -0.82083849   -88.080835 
    8700    89.137283    3923.3319    3924.7173   -541.60836    527.56916    1.1060816  -0.29863751   -18.100652   -43.293797  -0.88180982   -17.649439   0.98444256  -0.28585544   -7.7346236   -43.021999  -0.98043833   -6.8064005            0            0            0   -1.3482307  -0.81461505   -88.069385 
    8800    89.137283    3840.6766     3873.147   -1055.8711    525.27502    1.0280691  -0.29206549    -17.98546   -43.261381  -0.80223083   -17.647272   0.89167996  -0.27440842    -7.659754    -43.00204  -0.88164606   -6.8027008            0            0            0   -1.3554772  -0.80839162   -88.057935 
    8900    89.137283    3319.2651    3330.0432    -1536.504    526.63305     1.068473  -0.26673464   -17.881962   -43.226957  -0.85974634   -17.662596   0.90098676  -0.27107211    -7.516535    -42.96276  -0.92737563   -6.8229722            0            0            0   -1.3627237  -0.80216818   -88.046486 
    9000    89.137283    3227.8621    3286.3352   -1961.9152    527.31531    1.1277012  -0.35574466    -17.69507   -43.155421  -0.75548782   -17.646598   0.92197255  -0.34027664   -7.2700295    -42.90641  -0.80570625   -6.8853259            0            0            0   -1.3699701  -0.79594474   -88.035036 
    9100    89.137283     2851.752    3024.9936   -2704.8471    525.90909    1.0977438  -0.39843933   -17.569877   -43.217691  -0.83656786   -17.694915   0.94658085  -0.39722947   -7.1740425   -42.964246  -0.91281015   -6.9839751            0            0            0   -1.3772166  -0.78972131   -88.023586 
    9200    89.137283      2630.94    2716.7829   -2967.8481    527.40787    1.0923324  -0.33212988   -17.481865   -43.281614  -0.87021369   -17.793568   0.92854679  -0.38844215   -7.1252828   -43.041603  -0.91779103   -7.1074601            0            0            0   -1.3844631  -0.78349787   -88.012136 
    9300    89.137283    2517.9076    2502.8158   -3288.6201    523.78706     1.173764  -0.21420072    -17.31366   -43.257045   -0.9028663   -17.671479    1.0867137  -0.23975099   -6.9637987   -42.997814  -0.95698156   -6.9653712            0            0            0   -1.3917096  -0.77727444   -88.000686 
    9400    89.137283    2243.9015    2311.5661   -3430.2353     524.0132    1.1842725   -0.1383951   -17.287127   -43.323675  -0.96507276    -17.67162    1.0497724  -0.14319399     -6.91607   -43.063688     -1.01948   -6.8826397            0            0            0    -1.398956    -0.771051   -87.989236 
    9500    89.137283    2232.6939    2210.1829   -3505.4697    522.74524    1.1550096 -0.073956038   -17.306296   -43.307423  -0.98834208   -17.693837    1.0162975 -0.0056996533   -6.9386885   -43.032969   -1.0817439   -6.8927947            0            0            0   -1.4062025  -0.76482757   -87.977786 
    9600    89.137283    2332.7135    2164.8892   -3763.4645    528.74836    1.1552912 -0.077405378   -17.311112   -43.335454   -0.9792387    -17.65762    1.0578921 -0.039507731   -6.8884789   -42.963612   -1.0682375   -6.8976835            0            0            0    -1.413449  -0.75860413   -87.966336 
    9700    89.137283    2686.2192     2769.214    -2826.698    517.85034    1.2137744 -0.093372329   -17.368551   -43.274631  -0.99777917   -17.740564    1.1187625 -0.079313808   -6.9777818   -42.903741   -1.1328241   -7.0252616            0            0            0   -1.4206954   -0.7523807   -87.954886 
    9800    89.137283    2816.3541    2908.7245   -2515.8103    529.98638     1.141782  -0.14278065   -17.549933   -43.269053   -1.0050233   -17.755676    1.0425656  -0.12992514   -7.1964399   -42.921122   -1.1152462   -6.9750284            0            0            0   -1.4279419  -0.74615726   -87.943436 
    9900    89.137283    3244.2057    3480.8823   -1557.4837    524.66689     1.152355  -0.12106092     -17.6461   -43.310333    -1.004081   -17.756084    1.0505343  -0.13038713   -7.3252138   -42.961252   -1.1145212   -6.9647852            0            0            0   -1.4351884  -0.73993383   -87.931986 
   10000    89.137283     3670.401    3747.5892    -1136.055    523.31571    1.0988666  -0.18696687   -17.758206    -43.28363  -0.85494224   -17.591707     1.001938  -0.20643214   -7.4144363   -42.979538  -0.93941555   -6.8069412            0            0            0   -1.4424349  -0.73371039   -87.920536 
   10100    89.137283     3942.729    3903.0355   -945.55689    531.11859    1.1230634  -0.18706522    -17.89704   -43.248203   -0.7730516   -17.493464   0.98082502  -0.14784072   -7.6127672   -42.958473   -0.8445748   -6.6902236            0            0            0   -1.4496813  -0.72748696   -87.909086 
   10200    89.137283    4546.9454    4599.2974    270.82058     532.0109    1.0614895  -0.25057513   -17.949193   -43.238221  -0.73516089   -17.527695   0.87240288  -0.25309011   -7.6566096   -43.014419  -0.74686943    -6.846257            0            0            0   -1.4569278  -0.72126352   -87.897636 
   10300    89.137283    4967.0466    5123.8932    1154.3099    534.51013    1.1021841   -0.1965695   -17.964702   -43.241761  -0.71970143   -17.611977   0.97294526  -0.23880978    -7.644926    -42.99244  -0.77477641   -6.9004433            0            0            0   -1.4641743  -0.71504009   -87.886186 
   10400    89.137283    5164.3374    4987.4868    1770.9505    535.07798    1.1109955  -0.18211939     -18.0433   -43.256375  -0.78671288   -17.685046   0.93806226  -0.18925669   -7.7060082   -43.027995  -0.82389587   -6.8602579            0            0            0   -1.4714208  -0.70881665   -87.874736 
   10500    89.137283    5593.8707    5770.6933    2539.6435    530.01336    1.1105234  -0.23322949   -18.122912   -43.290062  -0.77713434   -17.706828   0.96007793  -0.16312476   -7.7504078   -43.071832   -0.7869255   -6.8255942            0            0            0   -1.4786672  -0.70259322   -87.863286 
   10600    89.137283    5684.5805    5642.3276    2176.7338    532.84862    1.1108446  -0.21935243   -18.209716   -43.314438  -0.80263724   -17.833096   0.96453216   -0.1534937   -7.8228812   -43.097863  -0.82810669   -7.0146488            0            0            0   -1.4859137  -0.69636978   -87.851836 
   10700    89.137283    5915.2712    5872.2532     2850.705    535.59347    1.1015591  -0.15224332   -18.275763   -43.295376  -0.88030896    -17.96383    1.0045024 -0.097260974   -7.9512128   -43.088946  -0.95822684   -7.2931212            0            0            0   -1.4931602  -0.69014635   -87.840386 
   10800    89.137283    6367.3248    6340.7661    3597.9674    539.03775    1.1507516 -0.037140774   -18.181668   -43.314114  -0.84731278   -18.084704    1.0207448  0.045669259   -7.9122858   -43.039763  -0.93344094   -7.4348239            0            0            0   -1.5004066  -0.68392291   -87.828936 
   10900    89.137283     6355.998    6268.1987    3325.3151    539.64198    1.0409592 -0.046735386    -18.13796   -43.335021  -0.90526662   -18.243293   0.88948586  0.031690658   -7.8772798   -43.008782  -0.97423462    -7.607142            0            0            0   -1.5076531  -0.67769948   -87.817486 
   11000    89.137283    6638.6241    6293.8059    3591.2535    539.61379    1.0250632 0.0066386585   -17.980549   -43.304778  -0.90102789   -18.299001   0.89331941  0.067650836   -7.6981656   -43.027254   -1.0206645   -7.6202391            0            0            0   -1.5148996  -0.67147604   -87.806036 
   11100    89.137283    6411.0264     6286.724     3422.961    537.62058    1.0995043  0.019118333   -18.010995   -43.275631  -0.88853276    -18.23642   0.96907118  0.052722272   -7.7009807   -43.011015  -0.95136745   -7.5616632            0            0            0   -1.5221461  -0.66525261   -87.794586 
   11200    89.137283    6285.2263     6173.008     2894.729    536.64825    1.1432004  -0.05118593   -17.939478    -43.23994  -0.90093998   -18.158762    1.0578502 -0.038436854    -7.594098   -42.953669  -0.87672246    -7.466204            0            0            0   -1.5293925  -0.65902917   -87.783136 
   11300    89.137283    5689.8619    5655.6631    2400.3343    536.34606    1.0904739  -0.13108448   -17.761839   -43.276437  -0.92314504   -18.072555   0.97608282 -0.099776468   -7.4530586   -42.967252  -0.95657126   -7.3863117            0            0            0    -1.536639  -0.65280574   -87.771686 
   11400    89.137283    5439.9238    5211.1111    1497.9855     535.8304    1.1003956  -0.10080967   -17.683566   -43.339196  -0.84610941    -18.01524   0.98840508 -0.086827856   -7.3555996   -43.055963  -0.84517907   -7.2608049            0            0            0   -1.5438855   -0.6465823   -87.760236 
   11500    89.137283    5328.2071    5370.8088    1695.9874    531.19592    1.1584046  -0.13419353   -17.653324   -43.350546  -0.82426387   -17.967203    1.0080801  -0.16394456   -7.3709005   -43.033137  -0.88085021   -7.2633451            0            0            0    -1.551132  -0.64035886   -87.748786 
   11600    89.137283    4766.0708    4829.3541    772.40883    534.25729    1.1048708  -0.14843739   -17.559108   -43.344844   -0.7700633   -17.843672   0.95369968  -0.11897842   -7.2531752   -43.064557  -0.82058912   -7.1415329            0            0            0   -1.5583784  -0.63413543   -87.737336 
   11700    89.137283     4272.297    4270.2641   -282.73342    524.16134    1.0801505   -0.2508734    -17.56737   -43.328735  -0.72684342   -17.702014   0.91080469   -0.2888458   -7.1937624   -43.033135  -0.80530943    -7.030307            0            0            0   -1.5656249  -0.62791199   -87.725886 
   11800    89.137283     3716.059     3792.568   -1101.4155    528.08916    1.0714494  -0.20483241   -17.588369   -43.321745  -0.68074835   -17.536729   0.98957097  -0.22991154   -7.2227692   -43.000486  -0.81493698   -6.7909045            0            0            0   -1.5728714  -0.62168856   -87.714436 
   11900    89.137283     3228.537    3313.3536    -1707.148    531.70686    1.0570568  -0.20456114   -17.485779   -43.336314  -0.73063362   -17.346669   0.96924825  -0.15712774   -7.1077318   -43.005052  -0.91022533   -6.5805915            0            0            0   -1.5801179  -0.61546512   -87.702986 
   12000    89.137283     3196.446    3164.3953   -1976.4465    526.31032    1.0557387  -0.14913426   -17.406614   -43.356453  -0.82739031   -17.217665   0.98554961  -0.11138772   -7.0965706   -43.053988  -0.99720947    -6.453926            0            0            0   -1.5873643  -0.60924169   -87.691536 
   12100    89.137283    3375.4432    3434.6562   -1760.2761    522.39273    1.0782293  -0.10183261   -17.426465    -43.36315  -0.82042522   -17.084708    0.9569395 -0.072429882   -7.1367769   -43.075948  -0.93999767   -6.3072535            0            0            0   -1.5946108  -0.60301825   -87.680086 
   12200    89.137283    3104.4421    3023.7801   -2313.0958    522.08353    1.0497489 -0.063940883   -17.399506   -43.365739  -0.84212328   -17.060134   0.96639902 -0.059173131   -7.0984576   -43.041705  -0.89771797   -6.2958445            0            0            0   -1.6018573  -0.59679482   -87.668636 
   12300    89.137283    2538.4341    2716.3423   -2949.9736    523.95046   0.95196243 -0.081864408   -17.433178   -43.386395  -0.81637331   -17.034235   0.81739782 -0.068296713   -7.1095851   -43.064891  -0.90069365   -6.2375457            0            0            0   -1.6091037  -0.59057138   -87.657187 
   12400    89.137283    2408.9412    2308.8533   -3543.9003    526.18451    0.8915678 -0.036006041   -17.419402    -43.39689  -0.79220287   -17.028906    0.7811339  -0.08110807   -7.0937216   -43.108226  -0.90950311   -6.2415377            0            0            0   -1.6163502  -0.58434795   -87.645737 
   12500    89.137283    2555.0649    2251.9187   -3389.8278    523.24799   0.93060851 0.0027171328   -17.388673   -43.373312  -0.86310278   -17.058499   0.86109673 -0.047112885   -7.0985633   -43.126817  -0.92360495   -6.2626924            0            0            0   -1.6235967  -0.57812451   -87.634287 
   12600    89.137283    2300.7491    2236.8082   -3654.6579    529.00749   0.90071119 -0.022499748   -17.292958   -43.423422  -0.78183223   -17.128996   0.79169965  -0.13277703   -7.0200016   -43.151584  -0.79553334   -6.4233619            0            0            0   -1.6308432  -0.57190108   -87.622837 
   12700    89.137283    2660.9192    2695.8205   -3284.3578    522.17112   0.91193814 -0.039699952   -17.248538   -43.490198  -0.78001459   -17.155721   0.74186318 -0.056029269   -6.9653211   -43.175799  -0.82985515   -6.4367364            0            0            0   -1.6380896  -0.56567764   -87.611387 
   12800    89.137283    2904.3947    2798.3347   -2919.1411     528.3546   0.93886692 -0.024597893   -17.196482   -43.568329  -0.74601046    -17.23286   0.74547581  0.056130932    -6.874983   -43.302928  -0.75395463   -6.5288251            0            0            0   -1.6453361  -0.55945421   -87.599937 
   12900    89.137283    3301.2685    3296.3782   -1791.5562    525.28216   0.90118839 -0.049200672   -17.214307   -43.602953  -0.75542656   -17.387739   0.75785202  0.091051883   -6.8526626   -43.348187  -0.80033861   -6.6437709            0            0            0   -1.6525826  -0.55323077   -87.588487 
   13000    89.137283    3716.2961    3367.1213   -1414.6655    527.66659   0.88196419 -0.0066364429   -17.214698   -43.644613  -0.71102325   -17.447723   0.74703611  0.092743112   -6.8489114   -43.472078   -0.8348684   -6.6623472            0            0            0   -1.6598291  -0.54700734   -87.577037 
   13100    89.137283    3944.2658    3856.4877   -925.78628    526.05613   0.83574247 -0.038093045   -17.251901   -43.644754  -0.71705717    -17.55425   0.66118933  0.028909397   -6.8599567   -43.461353  -0.87170142   -6.8361157            0            0            0   -1.6670755   -0.5407839   -87.565587 
   13200    89.137283    4690.4809    4526.7478    76.420099    530.04882   0.77081668  -0.03278989   -17.279047    -43.63684  -0.69094126   -17.636298   0.64397819 -0.0042144706   -6.9284502   -43.408266  -0.78646213   -6.9744181            0            0            0    -1.674322  -0.53456047   -87.554137 
   13300    89.137283    5207.8664    4921.6506    1053.5018    535.66999    0.7712565 0.0095432715   -17.328044   -43.608174  -0.67478027    -17.65573   0.58362442  0.012440323   -7.0169215   -43.369496  -0.69950868   -7.0833097            0            0            0   -1.6815685  -0.52833703   -87.542687 
   13400    89.137283    5291.3977    5227.0449    1206.9862    536.02007   0.75373295  0.019514797   -17.437922   -43.631232  -0.73546592   -17.720092   0.52945493   -0.0494592   -7.1102954   -43.396187  -0.65906154   -7.0580579            0            0            0    -1.688815   -0.5221136   -87.531237 
   13500    89.137283    5669.2763    5608.0331    1975.8334    535.10136   0.70377671  0.051619108   -17.540765   -43.658701  -0.64834208   -17.740658   0.49140305  0.039350186   -7.2386711   -43.399368  -0.68186014   -7.0392712            0            0            0   -1.6960614  -0.51589016   -87.519787 
   13600    89.137283    5680.3079    5743.1311    2346.3707    536.05421   0.74807118 -0.028268205   -17.734293   -43.667674  -0.67226622    -17.73701   0.54560842 -0.051185383   -7.3988983   -43.370267  -0.78935124   -6.9865813            0            0            0   -1.7033079  -0.50966673   -87.508337 
   13700    89.137283    5952.4113    5750.1761     2544.955    535.37343     0.720368 0.00096802711   -17.817268   -43.655675  -0.70647766   -17.693485   0.55092499 -0.087392842   -7.4927991   -43.377455  -0.85899427    -6.900062            0            0            0   -1.7105544  -0.50344329   -87.496887 
   13800    89.137283    6367.7396    6235.0689     3145.698    536.28027   0.70001296 -0.0063600786   -17.850762   -43.715819  -0.69813952   -17.688015   0.60103883 -0.070986041   -7.5772866   -43.398617   -0.7847405   -6.9363531            0            0            0   -1.7178008  -0.49721985   -87.485437 
   13900    89.137283    6658.6588    6574.3058    3551.7491    534.99304   0.68653837  0.079868598   -17.903901   -43.722025  -0.68277928    -17.61058   0.65219006   0.05753015    -7.675972   -43.476416  -0.78439219   -6.8867896            0            0            0   -1.7250473  -0.49099642   -87.473987 
   14000    89.137283    6602.7849    6372.1107     3634.382    537.86689   0.70099446  0.081004413   -17.893219   -43.715653  -0.69913154   -17.661485    0.6757666  0.057970707   -7.7016196   -43.485632  -0.82446204   -7.0086083            0            0            0   -1.7322938  -0.48477298   -87.462537 
   14100    89.137283    6760.4364    6760.4421    3623.9773    533.29419   0.69019855  0.080963225   -17.976594   -43.729636  -0.68858237   -17.700452   0.57928923    0.1178655   -7.8354897   -43.475889  -0.81338248   -7.0766113            0            0            0   -1.7395403  -0.47854955   -87.451087 
   14200    89.137283    6656.7941    6666.9743    3292.9355    535.22832   0.75212787   0.14886523    -17.98842   -43.697329  -0.65679917   -17.594908   0.57025186   0.15284621   -7.7808196   -43.410814  -0.74943331   -6.9758339            0            0            0   -1.7467867  -0.47232611   -87.439637 
   14300    89.137283    6336.8416    6181.9815    2775.8337    535.79205   0.75022713    0.1047438    -17.87243   -43.679451   -0.6139884   -17.622112    0.5357711  0.070081467   -7.5713582   -43.416622  -0.69180998    -6.990226            0            0            0   -1.7540332  -0.46610268   -87.428187 
   14400    89.137283    5733.7387      5640.48    2031.9344    534.00808   0.67178918   0.10675545   -17.715582   -43.632295  -0.63240961   -17.587379   0.49749675   0.11377347   -7.4228867   -43.358561  -0.73033035   -6.9163302            0            0            0   -1.7612797  -0.45987924   -87.416737 
   14500    89.137283    5463.8013    5320.1765    1496.4132    535.83165   0.65610183   0.12627864   -17.552701   -43.671048  -0.60205817   -17.571677   0.54713986   0.15761434   -7.2136056   -43.387413  -0.63373808   -6.8286159            0            0            0   -1.7685262  -0.45365581   -87.405287 
   14600    89.137283    5246.8704    4988.7508     1048.621    533.15323    0.6818943  0.087059978   -17.411635   -43.625442  -0.58318341   -17.440762   0.54193867   0.14077402   -7.0928358   -43.374432  -0.64708098   -6.7317868            0            0            0   -1.7757726  -0.44743237   -87.393837 
   14700    89.137283    4708.8559    4583.5128    374.81555     527.6044   0.73458669  0.088926252   -17.226021   -43.683118  -0.55882794   -17.344406   0.63456848   0.14291303   -6.9002818    -43.42653  -0.59590745   -6.6853874            0            0            0   -1.7830191  -0.44120894   -87.382387 
   14800    89.137283    4044.4811    4134.3702    -578.4293    532.24694   0.73416601   0.11387555   -17.047921   -43.778814  -0.54909301   -17.244307   0.61806306   0.14085916   -6.7203317   -43.571797  -0.56662566   -6.5585526            0            0            0   -1.7902656   -0.4349855   -87.370937 
   14900    89.137283    3688.5373    3564.1253    -1359.497    530.42491   0.75027795  0.099358036   -17.008682   -43.747817  -0.49634602   -17.222062   0.66725321   0.14303051   -6.7080131   -43.488427  -0.57230527   -6.4594739            0            0            0   -1.7975121  -0.42876207   -87.359487 
   15000    89.137283    3450.6607    3656.3072   -1773.1108    528.16477    0.7717494   0.18322087   -16.966333   -43.715652  -0.53601328   -17.222095   0.65222176   0.22870967   -6.6827504   -43.369407  -0.59068834   -6.4600589            0            0            0   -1.8047585  -0.42253863   -87.348037 
   15100    89.137283    3387.4908    3345.4466   -2051.8166    527.74796   0.72196228   0.17588832   -16.971572   -43.666378  -0.60003528   -17.164154    0.6097191   0.18511372   -6.6574362   -43.353153  -0.62330158    -6.517519            0            0            0    -1.812005   -0.4163152   -87.336587 
   15200    89.137283    3341.5043    3270.4696   -1980.3672    526.04441   0.70914777   0.12948504   -16.916484   -43.707581   -0.5710656   -17.024804   0.59204886  0.093880316   -6.5721935   -43.390934  -0.60951282   -6.3790288            0            0            0   -1.8192515  -0.41009176   -87.325137 
   15300    89.137283    2629.6081    2939.2456    -3131.563    524.72371   0.72811345   0.15452479   -16.888431   -43.658719  -0.61089822   -16.971867   0.57562805   0.15966929   -6.5728134   -43.361791  -0.63258252   -6.2952231            0            0            0   -1.8264979  -0.40386833   -87.313687 
   15400    89.137283    2280.2262    2570.2671   -3450.0935    529.63404   0.68430721   0.16246683   -16.888751   -43.650515  -0.60677124   -16.856342   0.52441312   0.22871828   -6.5987277   -43.372325  -0.69205418   -6.1299859            0            0            0   -1.8337444  -0.39764489   -87.302237 
   15500    89.137283    2406.5162     2416.493   -3487.1908    522.59568   0.70924779   0.16205063    -16.95016   -43.669057  -0.59930657   -16.794035   0.55606951   0.16595741   -6.6728015   -43.392783  -0.61673383   -6.0228257            0            0            0   -1.8409909  -0.39142146   -87.290787 
   15600    89.137283    2660.1824    2399.2542   -3082.6484    525.37107   0.74867004   0.20032303   -16.919226   -43.592121  -0.52618657     -16.7425    0.6547477   0.19480751   -6.5662074   -43.289591   -0.5905937    -6.056567            0            0            0   -1.8482374  -0.38519802   -87.279337 
   15700    89.137283     2490.697    2283.2019   -3233.6808    525.13668   0.77182114   0.16354589    -16.89414   -43.642483   -0.5661862   -16.662811   0.64360789   0.13712953   -6.5494573   -43.375327  -0.59869746   -5.9096253            0            0            0   -1.8554838  -0.37897459   -87.267888 
   15800    89.137283    2762.6411    2803.0623   -3014.3754    525.65741   0.70829065   0.13004494   -17.000797   -43.688213   -0.5021523   -16.772679   0.59312399   0.16795628   -6.7086592   -43.431625  -0.60867878    -5.988434            0            0            0   -1.8627303  -0.37275115   -87.256438 
   15900    89.137283     3094.871    3245.5679   -2341.8966    526.03854   0.72276895  0.098562754   -17.028924   -43.668162  -0.59320317   -16.835097   0.56489697   0.13584867   -6.7857895   -43.380953  -0.71485901   -6.1085851            0            0            0   -1.8699768  -0.36652772   -87.244988 
   16000    89.137283    3459.7783    3332.1162   -1775.5956    531.69338   0.73118056   0.10794472   -17.118906   -43.641343  -0.60116679   -16.916042   0.61048044   0.17530712   -6.8386248    -43.36523  -0.66989857   -6.1718737            0            0            0   -1.8772233  -0.36030428   -87.233538 
   16100    89.137283    4063.5876     3887.952   -1132.3555    522.76554   0.73331154   0.11378296   -17.180052   -43.678212  -0.53103833   -16.985581   0.64260256    0.1122197   -6.8529863   -43.394225  -0.59789574   -6.2590203            0            0            0   -1.8844697  -0.35408084   -87.222088 
   16200    89.137283    4166.8073    4135.7812   -430.30738    531.37111   0.77132765    0.1227934   -17.156067   -43.727745  -0.51769646   -17.081156   0.66773069  0.037098786   -6.8368924     -43.4475  -0.59628619      -6.3851            0            0            0   -1.8917162  -0.34785741   -87.210638 
   16300    89.137283    4463.0928     4663.966    289.76167    534.48661   0.74970716   0.17842851   -17.165462   -43.707445  -0.53875172   -17.185013   0.62446343  0.095294683   -6.8896162   -43.435932  -0.63588304   -6.5121643            0            0            0   -1.8989627  -0.34163397   -87.199188 
   16400    89.137283    5096.7733    5149.4045    1185.6753    531.90114   0.79547138   0.11294115   -17.138244   -43.691384  -0.51121891    -17.22992   0.66669248  0.078836653   -6.8452139   -43.434054  -0.61506896   -6.5664285            0            0            0   -1.9062092  -0.33541054   -87.187738 
   16500    89.137283    5364.5797    5530.5613    1643.8682    535.89975   0.69268922   0.13475072    -17.17293   -43.667186  -0.53099956   -17.243977   0.58353331   0.12508365   -6.8388272   -43.428716   -0.6898608   -6.5296424            0            0            0   -1.9134556   -0.3291871   -87.176288 
   16600    89.137283     5545.796     5461.341    2109.9282    536.80979    0.6508578   0.15857638   -17.185659   -43.647303  -0.57308542   -17.377822   0.52906338   0.17660551   -6.8050726   -43.373501  -0.68262817   -6.6564146            0            0            0   -1.9207021  -0.32296367   -87.164838 
   16700    89.137283    5798.1813    5797.3685    2293.3349    534.42359   0.66388208   0.14710433   -17.288359   -43.622811  -0.55619077   -17.453873    0.5494133    0.2027843   -6.9749546   -43.320735  -0.64001426   -6.7819661            0            0            0   -1.9279486  -0.31674023   -87.153388 
   16800    89.137283    6133.2377    5996.8705    2425.5099    537.65367   0.63484156   0.22381793   -17.395862   -43.659297  -0.50324442   -17.549323    0.5039755   0.29155296   -7.0972407    -43.37108  -0.60358429   -6.9011013            0            0            0    -1.935195   -0.3105168   -87.141938 
   16900    89.137283     6151.496    6244.3498    3066.1993     540.4787   0.70853823   0.24122925   -17.435311   -43.712679  -0.56834147   -17.623145   0.52637054   0.31586985   -7.1814146   -43.406276  -0.66954017   -7.0220137            0            0            0   -1.9424415  -0.30429336   -87.130488 
   17000    89.137283    6553.3401    6580.4552     3347.507    535.58418   0.71698763   0.29008486   -17.458967   -43.739012  -0.52247554   -17.589569   0.59005556   0.34170725   -7.1817358   -43.444249  -0.56226309   -6.9692599            0            0            0    -1.949688  -0.29806993   -87.119038 
   17100    89.137283    6505.4644    6199.1147     3284.781    542.25771   0.72047171   0.30762039   -17.527144   -43.779049  -0.54992834   -17.533343   0.61706429   0.33527093   -7.3407031   -43.446199  -0.62068057   -6.8812356            0            0            0   -1.9569345  -0.29184649   -87.107588 
   17200    89.137283    6518.7098    6409.2566    3469.6492    537.17715   0.67882115   0.29076843    -17.49306    -43.77781  -0.46963735   -17.418655   0.58029033   0.29415018   -7.2571176   -43.485398  -0.55233081   -6.7640727            0            0            0   -1.9641809  -0.28562306   -87.096138 
   17300    89.137283    6312.2398     6183.655    2939.9118    538.47364   0.61457649   0.17982637   -17.434136   -43.814137   -0.3964206   -17.281885    0.5261734   0.20677003   -7.1839632   -43.516863  -0.37949227   -6.5958357            0            0            0   -1.9714274  -0.27939962   -87.084688 
   17400    89.137283    5985.2508    5765.3351     2403.075    534.54728    0.6031693     0.211428   -17.360382   -43.761328   -0.3734098   -17.229341     0.466532   0.21560986   -7.0287446   -43.503443   -0.3957372   -6.5762943            0            0            0   -1.9786739  -0.27317619   -87.073238 
   17500    89.137283    5514.4136    5308.7144    1652.7408    536.33329   0.59423039   0.16407863   -17.317118   -43.727464  -0.37956292   -17.098441   0.41600764   0.15307787   -7.0370368   -43.466655  -0.42903409   -6.3938856            0            0            0   -1.9859204  -0.26695275   -87.061788 
   17600    89.137283    5353.5939    5378.6681    1351.0743    533.03202   0.59174171   0.19486886   -17.272612   -43.734578  -0.31933664   -17.008729   0.41069614   0.17008491   -7.0505939    -43.45818  -0.41017279   -6.2712569            0            0            0   -1.9931668  -0.26072932   -87.050338 
   17700    89.137283    4879.7354    5077.0888    606.50398    533.32908   0.57937817   0.19535538   -17.233248    -43.74147  -0.38964069   -16.937891   0.39287175   0.22658248   -7.0082765   -43.477597  -0.52165939   -6.2281742            0            0            0   -2.0004133  -0.25450588   -87.038888 
   17800    89.137283    4181.0059    4288.6514   -354.85607    532.29123   0.61213556   0.21725569   -17.054242   -43.756199  -0.43339352   -16.841981   0.43315031   0.25890194   -6.7851733   -43.518349  -0.50809461   -6.1518891            0            0            0   -2.0076598  -0.24828245   -87.027438 
   17900    89.137283     3826.597    3850.1412   -1084.7551    533.43954   0.62123044   0.26496044   -16.974525    -43.75546   -0.5013146   -16.811291   0.51863244   0.31546389   -6.6438091    -43.51381   -0.6108266    -6.082183            0            0            0   -2.0149063  -0.24205901   -87.015988 
   18000    89.137283    3664.5029    3492.4562   -1384.4733    529.72034   0.55646509   0.37270581   -16.876765   -43.774955  -0.56239814   -16.765391   0.41997913   0.39205465   -6.5610874   -43.542038   -0.6595626   -5.9702093            0            0            0   -2.0221527  -0.23583558   -87.004538 
   18100    89.137283    3465.5288    3502.3112   -1883.7685    526.36515   0.60756497   0.43074892   -16.616326   -43.843731  -0.51576201   -16.696015   0.46789559   0.41149943   -6.2558188   -43.611956  -0.62594728   -6.0101472            0            0            0   -2.0293992  -0.22961214   -86.993088 
   18200    89.137283    3265.9424     3464.625   -2072.8078    528.79869   0.59156696   0.33150602   -16.588046   -43.836647  -0.51875017   -16.652185   0.45570792   0.24538273   -6.2395369   -43.577517  -0.60327819   -5.9799592            0            0            0   -2.0366457  -0.22338871   -86.981638 
   18300    89.137283    3310.8809    2985.0558   -2419.9909    529.53562    0.5757783   0.38732072   -16.538823   -43.845453  -0.45426079   -16.606803   0.44796942   0.29150215   -6.1977342   -43.540987  -0.51320142   -5.9916625            0            0            0   -2.0438921  -0.21716527   -86.970188 
   18400    89.137283    2572.2017    2659.2992   -3099.3033     529.5013   0.57659945   0.30407475   -16.472941   -43.867532    -0.446121   -16.640041   0.46812122   0.29246849   -6.1284478   -43.538005  -0.51312929   -5.9647816            0            0            0   -2.0511386  -0.21094184   -86.958738 
   18500    89.137283    2738.5107    2727.6201   -2861.6442    521.10732   0.57828753   0.28858127    -16.47998   -43.802688  -0.42752247   -16.660727   0.46024004   0.31921083   -6.1551486   -43.459103  -0.49680193   -5.9812779            0            0            0   -2.0583851   -0.2047184   -86.947288 
   18600    89.137283    2622.5718    2566.7647    -3198.594    521.24474   0.54361618   0.24905162   -16.452514   -43.826785  -0.42128237    -16.61815   0.42670065   0.21911245   -6.1666953   -43.467291   -0.5116856   -5.9312108            0            0            0   -2.0656316  -0.19849496   -86.935838 
   18700    89.137283    2742.2957    2605.5411    -3268.783    526.27424   0.47874207    0.2211989   -16.531859      -43.849  -0.27588015   -16.646068   0.38604368   0.21258003    -6.263683   -43.551061  -0.31743309   -5.9119533            0            0            0    -2.072878  -0.19227153   -86.924388 
   18800    89.137283    2954.6032    2651.7224   -2992.3345    522.74503   0.49633079   0.25788321   -16.589006   -43.877057  -0.28056346   -16.649171   0.39476825   0.26157992   -6.3112791   -43.582276   -0.3272134     -5.88355            0            0            0   -2.0801245  -0.18604809   -86.912938 
   18900    89.137283    3075.5315    2870.8396    -2501.889    528.98155   0.44456695   0.32704254   -16.589599   -43.870584  -0.36547819   -16.586851   0.38255323   0.35166483   -6.3224196   -43.598306  -0.42037072   -5.8340028            0            0            0    -2.087371  -0.17982466   -86.901488 
   19000    89.137283    3393.6947    3302.6639   -2011.5674     528.9258   0.47630988   0.34484663   -16.635123    -43.92056  -0.32193731   -16.514734   0.42852869   0.38619318   -6.4014878   -43.601225  -0.41007239   -5.7855853            0            0            0   -2.0946175  -0.17360122   -86.890038 
   19100    89.137283    3668.8191    3728.2116   -1221.0609    523.92966   0.43596499   0.36683385   -16.669842   -43.997955  -0.34540416    -16.54793   0.33351348   0.37043122   -6.3810501   -43.664849  -0.39543966   -5.8387293            0            0            0   -2.1018639  -0.16737779   -86.878589 
   19200    89.137283    3908.5988    4049.2867   -591.14068    532.59066   0.42269794    0.3483258   -16.741455   -43.959544  -0.34780687   -16.607904   0.31886254   0.38059138   -6.4605024   -43.705526   -0.4324472   -5.8772601            0            0            0   -2.1091104  -0.16115435   -86.867139 
   19300    89.137283    4667.4814    4530.7722   -161.55335    532.07439   0.43825156   0.34959716   -16.814302   -43.997184  -0.37270347   -16.613508   0.29946008   0.39063176    -6.496812    -43.73142  -0.49647795   -5.9431013            0            0            0   -2.1163569  -0.15493092   -86.855689 
   19400    89.137283    5099.8204    4830.3858    964.71297    533.06409   0.40154198   0.44019922   -16.872356   -44.037058    -0.458757   -16.704685   0.24736471   0.48164166    -6.574355   -43.739795  -0.59627794   -6.0663594            0            0            0   -2.1236034  -0.14870748   -86.844239 
   19500    89.137283    5099.7892    5199.7207    1104.4049    530.62662   0.34056492   0.42646175   -16.978865   -44.054443  -0.39748715   -16.844581    0.1539422   0.48586566   -6.6923504   -43.727887  -0.49428715   -6.1518042            0            0            0   -2.1308498  -0.14248405   -86.832789 
   19600    89.137283    5437.6343    5358.6081    1828.8563    536.39082   0.36360646   0.42023307   -17.020113   -44.073516  -0.34105311   -16.884591   0.19771328   0.48232513    -6.719005   -43.794133  -0.35600899     -6.21795            0            0            0   -2.1380963  -0.13626061   -86.821339 
   19700    89.137283    5867.0608    5601.4099    1967.8579    534.76918   0.34905635   0.50354471   -17.075243   -44.100858  -0.33973254   -16.879379   0.18155521   0.49489251   -6.8034545    -43.82126  -0.38101205   -6.1869175            0            0            0   -2.1453428  -0.13003718   -86.809889 
   19800    89.137283     5817.819    5735.7707    2410.8822    538.69317   0.27671458   0.46274948   -17.072815   -44.130933  -0.30771481   -16.998717  0.068223662   0.40499006   -6.8543064   -43.892945  -0.30106202   -6.3084943            0            0            0   -2.1525892  -0.12381374   -86.798439 
   19900    89.137283    5992.1896    6310.2955    2888.8946    535.81177    0.2708632   0.47044372   -17.064378   -44.132339  -0.34364288   -17.037032   0.11864721   0.33178387   -6.8551784   -43.951691  -0.36291054   -6.3204393            0            0            0   -2.1598357  -0.11759031   -86.786989 
   20000    89.137283    6622.5882    6349.2766    3397.9522    534.37016   0.26194485   0.45411641   -17.030806    -44.15569  -0.38413294   -17.170657    0.1590228   0.36699676   -6.7837472   -43.897329  -0.49096546   -6.5208794            0            0            0   -2.1670822  -0.11136687   -86.775539 
   20100    89.137283    6589.5047    6463.1569    3412.5795    534.79759   0.22364402    0.4158834   -17.038242   -44.140768  -0.31637205   -17.153498    0.1068577   0.37335899   -6.7796415    -43.86732  -0.47511502    -6.487094            0            0            0   -2.1743287  -0.10514344   -86.764089 
   20200    89.137283     6422.074    6430.0629    3485.9261    537.87361   0.18510559   0.41153446   -17.073093    -44.20142  -0.24452634   -17.105951  0.035109348   0.42501397   -6.8323543    -43.88696  -0.41740378   -6.5153675            0            0            0   -2.1815751 -0.098920001   -86.752639 
   20300    89.137283     6461.328    5990.4935    2973.0737    537.30318   0.22745887    0.4351046   -17.077696   -44.171766  -0.22084318   -17.128655  0.062402876   0.45434596   -6.8305799   -43.900144  -0.37217066   -6.5440238            0            0            0   -2.1888216 -0.092696566   -86.741189 
   20400    89.137283    6259.2192     6036.899    2592.0094    535.24376   0.18501714   0.44758682    -17.01973   -44.185005  -0.15395898   -17.054025 -0.011376055   0.52867982   -6.8248647   -43.887527  -0.29923607   -6.4214829            0            0            0   -2.1960681 -0.086473131   -86.729739 
   20500    89.137283    5626.3786    5694.2484    2210.5733    538.79335   0.19217292   0.45925259   -16.894533   -44.171663  -0.16749001   -16.952455  0.021524795   0.58142711   -6.6391919   -43.886445  -0.28128606   -6.3276645            0            0            0   -2.2033146 -0.080249696   -86.718289 
   20600    89.137283    5509.2848     5642.975    1595.0767    533.10658   0.19883225   0.45287553   -16.871065   -44.172139  -0.17669317   -16.829376  0.081912056   0.52143149   -6.5788949   -43.975385  -0.24590182    -6.178739            0            0            0    -2.210561  -0.07402626   -86.706839 
   20700    89.137283    4686.0224    4890.5874    654.25655    536.97204   0.24795663   0.41754722   -16.724965   -44.190579  -0.24043898   -16.691406   0.16267742   0.42451478   -6.3715956   -43.921794  -0.21441891   -6.0559827            0            0            0   -2.2178075 -0.067802825   -86.695389 
   20800    89.137283    4185.4494    4308.3051   -475.60091    536.85003   0.25333471   0.47612021   -16.655139   -44.208906  -0.19627085   -16.543321   0.14135116   0.44716734   -6.3748048   -43.954813  -0.12511726    -5.832421            0            0            0    -2.225054  -0.06157939   -86.683939 
   20900    89.137283    4334.1548    4318.3404   -404.74733    526.45043   0.24611928   0.54393961   -16.659611   -44.220214   -0.2031937   -16.449365  0.069564646   0.53283802   -6.4137481   -43.958835  -0.16962907   -5.7031015            0            0            0   -2.2323005 -0.055355955   -86.672489 
   21000    89.137283    3627.3192    3695.8049   -1242.2302    531.55633    0.2446816   0.59073551   -16.537323   -44.186336  -0.16745107   -16.394873  0.095554641   0.57736664   -6.2711752   -43.918843  -0.21350968   -5.6493325            0            0            0   -2.2395469  -0.04913252   -86.661039 
   21100    89.137283    3583.1599    3689.6093   -1779.3967    529.67572   0.21344321   0.64110165   -16.451426   -44.132637  -0.15440045   -16.353181  0.060560377   0.61223968   -6.2036881   -43.873936  -0.22001955   -5.6569463            0            0            0   -2.2467934 -0.042909084   -86.649589 
   21200    89.137283     3457.546     3353.042   -2042.0898      534.465   0.23280029    0.5926597   -16.363926   -44.185199  -0.17813634   -16.288213  0.093590892    0.5920881   -6.1024954   -43.882907  -0.31028918   -5.5778541            0            0            0   -2.2540399 -0.036685649   -86.638139 
   21300    89.137283    3258.2068    3400.3821   -2454.4355    525.71299   0.22467647   0.55267388    -16.33096   -44.154481  -0.15743314   -16.328734   0.11676142   0.64928247    -6.056781   -43.858915  -0.30398154    -5.656551            0            0            0   -2.2612863 -0.030462214   -86.626689 
   21400    89.137283    3125.9173    3157.8441    -2656.923    525.98564   0.23545883   0.57101104   -16.257518   -44.166882  -0.20409863   -16.288986   0.15678774   0.65692049   -5.9679238   -43.910215  -0.40008701   -5.5994597            0            0            0   -2.2685328 -0.024238779   -86.615239 
   21500    89.137283    2948.3785    2708.4791   -2990.1439    528.17364   0.26317475   0.60397828    -16.22509   -44.182282  -0.16221618    -16.26755   0.14890124   0.64308182   -5.9303251   -43.921735   -0.2991367   -5.5249396            0            0            0   -2.2757793 -0.018015344   -86.603789 
   21600    89.137283    2502.2735    2534.8912   -3329.7881    531.72724   0.27772078   0.60617724   -16.172544    -44.14334  -0.15767257   -16.245923   0.13490721   0.67777662   -5.8516406   -43.876621   -0.2194705   -5.6531619            0            0            0   -2.2830258 -0.011791908   -86.592339 
   21700    89.137283    2512.9161     2602.973   -2884.8185    528.09137   0.30514435   0.58347688   -16.180005   -44.213492   -0.1756724   -16.279415   0.16560432   0.58949922   -5.8544374   -43.954597  -0.15357895   -5.6506691            0            0            0   -2.2902722 -0.0055684731   -86.580889 
   21800    89.137283    2686.5441       2747.2    -2896.076    529.20098   0.28379778   0.53699887    -16.17335   -44.150624  -0.17929807   -16.323595    0.1614877   0.54426097   -5.8400303   -43.888325  -0.19812895   -5.7797224            0            0            0   -2.2975187 0.00065496209   -86.569439 
   21900    89.137283    2692.2915    2732.6557   -2687.0991    527.40719   0.33027886   0.53041184   -16.240749   -44.169239  -0.12777823   -16.291272   0.20671267   0.47356702   -6.0141925   -43.886965  -0.13541858   -5.6305008            0            0            0   -2.3047652 0.0068783973   -86.557989 
   22000    89.137283    3254.0611    3257.5465   -2527.1755    525.76093   0.26294915   0.50777414    -16.26871   -44.146642  -0.21477313   -16.307174   0.11143205   0.51957533   -6.0401622   -43.893019  -0.21190346   -5.5908005            0            0            0   -2.3120117  0.013101833   -86.546539 
   22100    89.137283    3171.3146    3374.2733   -1760.6861    530.11085    0.2374051   0.49252152   -16.310896   -44.096183  -0.19039909   -16.342301  0.075174936   0.52138111   -6.0054131   -43.786549  -0.31366538    -5.601246            0            0            0   -2.3192581  0.019325268   -86.535089 
   22200    89.137283    3833.9053    3859.6263   -910.07115    531.89811   0.25593149   0.47155097   -16.383381   -44.066044  -0.13438002   -16.389461  0.077190628   0.49469537   -6.0860595   -43.778449  -0.28324888   -5.6477659            0            0            0   -2.3265046  0.025548703   -86.523639 
   22300    89.137283    4688.1786    4595.9512    109.19064    529.48695   0.23895999   0.48365324   -16.400731   -44.094384  -0.14494173    -16.38553  0.090592191   0.55258726   -6.1663002   -43.797983  -0.31156354   -5.7123078            0            0            0   -2.3337511  0.031772138   -86.512189 
   22400    89.137283    4719.2218    4912.3721    386.29127    531.87938   0.28373559   0.53721533   -16.438617   -44.140127   -0.2248019   -16.466189   0.15144693   0.62742047   -6.2109629   -43.814082   -0.3650785   -5.8381325            0            0            0   -2.3409975  0.037995573   -86.500739 
   22500    89.137283    5229.1448    4971.7377    1056.9603    532.52162   0.28767357   0.57949978   -16.518315   -44.137551  -0.26180387   -16.477415   0.22687998   0.57626956   -6.2330352   -43.822931  -0.37542903   -5.7914392            0            0            0    -2.348244  0.044219009    -86.48929 
   22600    89.137283    5601.7787    5408.4457    1715.4442    532.84902   0.30382197   0.58503338   -16.677741   -44.139309  -0.25341822   -16.490171   0.23798906   0.53717252   -6.4590632   -43.841896  -0.41803069    -5.827905            0            0            0   -2.3554905  0.050442444    -86.47784 
   22700    89.137283    5650.9035    5643.4897    1807.0031    533.51576   0.30485219   0.54716514   -16.660743   -44.184002  -0.20193086   -16.571732   0.26202469    0.4900067   -6.3767471   -43.903168  -0.31160366   -5.8912279            0            0            0    -2.362737  0.056665879    -86.46639 
   22800    89.137283    5643.6547    5451.5696    1805.1497    535.62326   0.30551039   0.55354196   -16.676391    -44.16159  -0.20335798    -16.62887   0.21906104   0.47447469    -6.358354   -43.857279  -0.28154123   -5.9544643            0            0            0   -2.3699834  0.062889314    -86.45494 
   22900    89.137283    5979.8195    5758.5502    2280.5859    537.62188   0.30411519   0.57032923   -16.705663   -44.253866  -0.19231282   -16.672403   0.17164522   0.55663541   -6.4200336   -43.970259  -0.21593538   -6.0133636            0            0            0   -2.3772299  0.069112749    -86.44349 
   23000    89.137283    6034.7252    6170.9055    2836.8983    534.79252   0.29002591   0.54390681    -16.75224    -44.21892  -0.17683137    -16.71774   0.14706601    0.5220025   -6.4712987   -43.912086  -0.18382758   -6.1351975            0            0            0   -2.3844764  0.075336185    -86.43204 
   23100    89.137283    6253.2022    6471.8385    3120.5013    535.26211   0.22070552   0.52834998   -16.716895   -44.184352  -0.13869645   -16.706996  0.077889643   0.55289542   -6.4692034    -43.87473  -0.17149856   -6.1381931            0            0            0   -2.3917229   0.08155962    -86.42059 
   23200    89.137283    6269.0999    6295.0427    3121.8391    538.54153   0.16501309    0.5531547   -16.779287   -44.144206  -0.10253947   -16.709823  0.041356309    0.5154228   -6.5289274   -43.876572  -0.17121674   -6.0873444            0            0            0   -2.3989693  0.087783055    -86.40914 
   23300    89.137283    6428.0839    6554.2008    3546.4963     530.7248   0.12526223   0.53096272   -16.724046   -44.128548 -0.053810547   -16.741094   0.01832436    0.5109521    -6.541633   -43.831743  -0.20954418   -6.0946779            0            0            0   -2.4062158   0.09400649    -86.39769 
   23400    89.137283    6450.8482    6282.0335    2804.6268     531.1232   0.16874558   0.57089402   -16.674374   -44.168354  -0.11587709   -16.721432  0.063933031   0.59192034   -6.4941779    -43.88728  -0.20843124   -6.0968229            0            0            0   -2.4134623   0.10022993    -86.38624 
   23500    89.137283    6077.9922    5883.3645    2501.4522     530.0836   0.13875016   0.57574875   -16.572343    -44.22832  -0.10362112   -16.679864 0.0087004123   0.62842673   -6.3246077    -43.96501  -0.17366478   -6.0451364            0            0            0   -2.4207088   0.10645336    -86.37479 
   23600    89.137283    5720.2864    5617.3378      1846.88    534.89566   0.13189102   0.60381207   -16.554535   -44.272085 -0.099279837   -16.662335 -0.045374803   0.69862205   -6.2937033   -44.013538  -0.16539491    -6.019523            0            0            0   -2.4279552    0.1126768    -86.36334 
   23700    89.137283    5361.5235    5195.4722    1070.1482    530.48178   0.11926074   0.66812733   -16.370206   -44.249173  -0.11243223    -16.47956  -0.03764565   0.68976724   -6.0506723   -44.001457  -0.11967125   -5.7909158            0            0            0   -2.4352017   0.11890023    -86.35189 
   23800    89.137283    4730.4031    4638.1949    342.60993    533.60973   0.11701309   0.65353338    -16.22703   -44.269967 -0.061841597   -16.317302 -0.064019068   0.64516477   -5.9702847   -43.999359 -0.095189111   -5.6212291            0            0            0   -2.4424482   0.12512367    -86.34044 
   23900    89.137283    4376.8122    4001.7067    -652.7991    532.63033   0.16393776   0.75244977   -16.282332   -44.282346 -0.073376336   -16.239102  0.017751266    0.7381409   -6.0520277   -44.011263   -0.1449743   -5.5165554            0            0            0   -2.4496946    0.1313471    -86.32899 
   24000    89.137283    4105.4378    3776.2669   -896.67522    531.39391   0.18650101   0.73222112   -16.166947   -44.332328 -0.049897417   -16.189489  0.060271762   0.68254047   -5.8499777    -44.06772  -0.18870356   -5.5099523            0            0            0   -2.4569411   0.13757054    -86.31754 
   24100    89.137283    3751.9717    3588.7321   -1518.6356    526.92254   0.16014781    0.7011818   -16.107781   -44.349368 -0.049991524   -16.126603  0.013024455   0.76853387   -5.7604055   -44.125232  -0.14653064   -5.5268299            0            0            0   -2.4641876   0.14379397    -86.30609 
[...]
  998900    89.137283    4429.5374    4180.8495   -639.91625    534.54221   -70.371791    61.521492    95.357494    -114.7995    60.733131     95.30138   -70.500867    61.587889    105.63544   -114.43836     60.63687    105.89819            0            0            0   -73.102809     60.80984    25.308224 
  999000    89.137283    4421.7589    4272.9332     -352.707    528.98159   -70.390451     61.63082    95.333991   -114.83442    60.816801    95.285052   -70.544043    61.687417    105.56877   -114.54955    60.737545    105.90669            0            0            0   -73.110056    60.816064    25.319674 
  999100    89.137283    4384.9862    4548.2987   -245.13277    532.12771   -70.446786    61.598508    95.295922   -114.83354    60.774144    95.321711   -70.590277    61.615986    105.49392   -114.55384    60.674847    105.93405            0            0            0   -73.117302    60.822287    25.331124 
  999200    89.137283    4280.1171    4517.3867   -277.12107    531.00142   -70.426401    61.477576    95.213195   -114.82926    60.798621    95.388877   -70.576521    61.459939    105.39484   -114.57847    60.753429    105.98065            0            0            0   -73.124548    60.828511    25.342574 
  999300    89.137283     4116.404    4309.7948   -466.76516    535.82894   -70.421019    61.435977    95.244333   -114.86871    60.739482    95.379052   -70.514032    61.441265     105.3821    -114.6036    60.712371    106.00638            0            0            0   -73.131795    60.834734    25.354024 
  999400    89.137283    4553.7487    4467.4974    -173.8455    528.81953   -70.453297    61.414542    95.263559   -114.89652    60.754248    95.339906   -70.531775    61.385822    105.46258   -114.63113    60.734298    105.99052            0            0            0   -73.139041    60.840958    25.365474 
  999500    89.137283    4422.0775    4240.5584   -135.75123    536.26164   -70.475935    61.357176    95.280395   -114.89343    60.799499    95.357978   -70.547462    61.366804    105.47919   -114.59864    60.749659    105.98676            0            0            0   -73.146288    60.847181    25.376924 
  999600    89.137283    4417.1503    4340.6037    24.515697     532.1089   -70.474372    61.429181    95.342462   -114.91766    60.790694    95.407794   -70.592806    61.409371    105.52672   -114.61521    60.694109      106.036            0            0            0   -73.153534    60.853404    25.388374 
  999700    89.137283    4484.0985    4282.9548   -434.96423    533.35313   -70.583139    61.467063    95.344129   -114.90306    60.804603    95.464836    -70.72092    61.496738    105.58646   -114.60929    60.667666    106.08103            0            0            0   -73.160781    60.859628    25.399823 
  999800    89.137283    4333.4492    4509.6583    87.329114    533.11025   -70.581942    61.422387    95.399361   -114.94098    60.809362     95.44893   -70.723066    61.424122    105.69237   -114.66962    60.654105    105.99709            0            0            0   -73.168027    60.865851    25.411273 
  999900    89.137283    4697.9182    4399.1761     84.98759    531.44909   -70.563923    61.426397    95.446183   -114.92222    60.758823    95.373934   -70.682845     61.43236    105.68694   -114.63312    60.670929     105.9377            0            0            0   -73.175274    60.872075    25.422723 
 1000000    89.137283    4599.5342    4542.4345   -60.138678    529.89639   -70.565966    61.421104    95.431486   -114.93968    60.753491    95.328784   -70.696674    61.442249    105.64698   -114.61978    60.689921    105.90932            0            0            0    -73.18252    60.878298    25.434173 
 1000100    89.137283    4482.9727    4574.2663   -102.37434    532.54076   -70.534306    61.427141     95.41752   -114.99872    60.697612    95.297988   -70.674251    61.425684    105.62445    -114.7039    60.617821    105.89956            0            0            0   -73.189767    60.884522    25.445623 
 1000200    89.137283    4886.4678    4954.9381    464.07181    527.90459   -70.578759    61.445737    95.384858   -115.03584    60.662775    95.306366   -70.708938    61.516337    105.57434   -114.75819    60.571647    105.88573            0            0            0   -73.197013    60.890745    25.457073 
 1000300    89.137283    4862.5315    4730.0474    376.12093    532.62541   -70.504727    61.461751    95.436442   -115.05999    60.683711    95.319525   -70.641237     61.49117    105.63855   -114.80138    60.657329    105.90243            0            0            0    -73.20426    60.896968    25.468523 
 1000400    89.137283    4604.8708    4485.0631    388.23825    538.51651   -70.605301    61.515537    95.485487   -115.05142    60.706781    95.362748   -70.772486    61.494141     105.6961    -114.7645    60.689735    105.91749            0            0            0   -73.211506    60.903192    25.479973 
 1000500    89.137283    4961.6332    4690.6906    386.28232    532.14156   -70.633296    61.504258    95.498772   -114.99928    60.727296    95.322531   -70.778706    61.535502    105.70757   -114.70935    60.719124    105.93027            0            0            0   -73.218753    60.909415    25.491423 
 1000600    89.137283    4565.6336    4458.6272    145.69908    539.37356   -70.700628    61.435523     95.42985   -115.04105    60.669033    95.389336   -70.839746    61.511802    105.61767   -114.74809    60.632775    106.02182            0            0            0   -73.225999    60.915639    25.502873 
 1000700    89.137283    4690.2879     4551.504    214.03441    534.37719   -70.724485    61.413465    95.399355   -115.06314    60.696647    95.432822   -70.838529    61.479437     105.6114   -114.75527    60.622734    106.03875            0            0            0   -73.233246    60.921862    25.514323 
 1000800    89.137283    4674.5518    4550.3348    375.46679    539.25757   -70.693527    61.393923    95.401098   -115.11853     60.67689    95.439447    -70.82343    61.441406    105.59369   -114.79138     60.60095     106.0382            0            0            0   -73.240492    60.928086    25.525773 
 1000900    89.137283    4523.1021    4508.4321    118.85089    534.75328   -70.752887    61.349357    95.386625   -115.14121     60.67355    95.458911   -70.845577    61.316589    105.59722   -114.86773    60.617748    106.03617            0            0            0   -73.247739    60.934309    25.537223 
 1001000    89.137283    4547.8961    4395.5881   -53.366856    535.84928   -70.743094    61.437398    95.433108   -115.21416    60.736714    95.415436   -70.813142    61.412471     105.6566   -114.99596    60.651993    105.98886            0            0            0   -73.254985    60.940533    25.548673 
 1001100    89.137283    4626.2668    4507.2807    44.605312    535.64882   -70.794665    61.397099    95.437158   -115.16177    60.762575    95.490066   -70.885923    61.382268    105.63185   -114.93465    60.635123    106.09485            0            0            0   -73.262231    60.946756    25.560123 
 1001200    89.137283    4614.4018    4705.6786    213.58211    535.32981   -70.840867    61.404418    95.449576   -115.19036    60.755261    95.555873   -70.959349    61.411976    105.66877   -114.93303    60.654055    106.16025            0            0            0   -73.269478    60.952979    25.571573 
 1001300    89.137283    4534.0573    4582.0578   -123.13427    536.08482   -70.834446    61.363194    95.504556   -115.27355    60.699704    95.591791   -70.974486    61.369726    105.75284   -114.99939    60.587798    106.18521            0            0            0   -73.276724    60.959203    25.583023 
 1001400    89.137283    4444.7284    4512.2774   -44.926237    535.12445     -70.8655    61.326355     95.57111   -115.25981    60.690614    95.559834   -71.018709    61.317055    105.76517   -114.95599    60.599914     106.1426            0            0            0   -73.283971    60.965426    25.594473 
 1001500    89.137283    4455.1321    4579.0733    37.235834    536.45029    -70.84755    61.346214    95.658051   -115.35296    60.661509     95.56262   -71.045746    61.370932    105.85838   -115.04638    60.559655    106.20104            0            0            0   -73.291217     60.97165    25.605923 
 1001600    89.137283    4643.1161    4726.3219    62.817773    531.96685   -70.869726    61.328849    95.625067   -115.31773    60.616718     95.55832   -71.080672    61.384872    105.79336   -115.06504    60.495581     106.1492            0            0            0   -73.298464    60.977873    25.617373 
 1001700    89.137283     4448.903    4580.8425    -324.3221    534.44257   -70.889701    61.448188    95.632592    -115.3399    60.670682    95.517288   -71.052797    61.394476    105.81675   -115.08882    60.580134    106.11229            0            0            0    -73.30571    60.984097    25.628823 
 1001800    89.137283    4212.6094    4255.6879   -459.31384    534.87735   -70.911415    61.435603    95.595242   -115.32463      60.6855    95.502969   -71.031819    61.395987    105.79015   -115.07283    60.635824    106.07782            0            0            0   -73.312957     60.99032    25.640273 
 1001900    89.137283    4488.3377    4567.3613    -243.8813    531.46244   -70.981235    61.477599    95.640677   -115.34545    60.653217    95.491262   -71.094897    61.491145    105.88869   -115.03936    60.553811    106.06212            0            0            0   -73.320203    60.996543    25.651723 
 1002000    89.137283    4125.4879    4302.4419   -552.18749    530.84616   -70.991485    61.422624    95.626122   -115.34754     60.66913     95.54726   -71.130773    61.380512    105.91179   -115.04301    60.538522    106.16839            0            0            0    -73.32745    61.002767    25.663173 
 1002100    89.137283    4454.3224    4352.6511   -166.09982    530.45327   -71.018722    61.392206    95.659359   -115.37946     60.66664    95.622654   -71.192745    61.379527    105.84621   -115.10288    60.564769    106.24041            0            0            0   -73.334696     61.00899    25.674623 
 1002200    89.137283    4778.8367    4572.6345    -29.01113    528.49767   -71.008912    61.409709    95.645642    -115.3945    60.666573    95.685228   -71.178122    61.415715    105.80145   -115.07496    60.566811    106.30233            0            0            0   -73.341943    61.015214    25.686073 
 1002300    89.137283    4551.4848    4518.2241   -153.64521    531.16394   -71.037783    61.403551    95.673187   -115.40405    60.734194    95.664627   -71.155323     61.45404    105.85507   -115.08885    60.652204    106.24748            0            0            0   -73.349189    61.021437    25.697523 
 1002400    89.137283    4297.3375    4467.8029    110.43642    529.84707   -71.011758     61.39732    95.684988   -115.40963     60.76595    95.706531   -71.121226    61.442246     105.8779   -115.14963    60.629067    106.32205            0            0            0   -73.356436    61.027661    25.708973 
 1002500    89.137283    4513.8987    4483.5353   -38.648349    532.24999   -71.016551    61.475828    95.631683   -115.40078    60.844122    95.753516   -71.121064    61.438514    105.83411   -115.18787    60.764249    106.36548            0            0            0   -73.363682    61.033884    25.720423 
 1002600    89.137283    4767.1736    4448.2362   -120.17382    530.31707   -71.018976    61.467003    95.570514   -115.43491     60.86898    95.706895   -71.108864    61.436757     105.7436   -115.18555      60.7967    106.32372            0            0            0   -73.370929    61.040108    25.731873 
 1002700    89.137283    4561.9857    4348.2419   -416.80661    530.79059   -71.004438    61.429589    95.580555   -115.46462    60.840717    95.732493    -71.19524    61.374462    105.81657   -115.23824    60.745644    106.36325            0            0            0   -73.378175    61.046331    25.743323 
 1002800    89.137283    4478.1819    4291.0074   -211.29082    533.88425    -71.00561    61.494117    95.623924   -115.48344    60.767081    95.761908    -71.20787    61.471689    105.84451   -115.23746    60.712152    106.34231            0            0            0   -73.385422    61.052554    25.754773 
 1002900    89.137283    4547.2948    4382.9008    -133.8273     537.0167   -70.977267     61.52993    95.731619   -115.49492    60.796247    95.765807   -71.144584    61.556512    105.90262    -115.1625    60.726668     106.2938            0            0            0   -73.392668    61.058778    25.766223 
 1003000    89.137283    4621.4971    4689.1986    266.60738    528.73581   -71.025839    61.575724    95.729305   -115.46133    60.832014    95.759696   -71.154085     61.61348     105.9519   -115.19791    60.863215     106.3552            0            0            0   -73.399914    61.065001    25.777673 
 1003100    89.137283    4453.2577    4434.5015   -175.78059    532.32397   -71.047839    61.620179    95.732257   -115.38572    60.846043    95.792144   -71.173695    61.676094    105.97813   -115.16062    60.868475    106.42669            0            0            0   -73.407161    61.071225    25.789122 
 1003200    89.137283    4570.1338    4659.4223    94.797348    532.70025    -71.02011    61.703864    95.731087    -115.3549    60.822158    95.775064   -71.127288    61.729316      105.952   -115.11605     60.78392    106.43194            0            0            0   -73.414407    61.077448    25.800572 
 1003300    89.137283    4734.4366     4798.894    470.87327    534.78521   -70.999128    61.740792    95.781447    -115.3813     60.88224     95.73355   -71.159589    61.782262    105.98151   -115.13347    60.826489    106.35709            0            0            0   -73.421654    61.083672    25.812022 
 1003400    89.137283    4702.6606     4685.469    481.03079    533.05302   -70.985741    61.703328    95.738045   -115.38923    60.889637    95.646051   -71.144174    61.783113    105.92418   -115.14614    60.768679    106.19203            0            0            0     -73.4289    61.089895    25.823472 
 1003500    89.137283     4924.733    4833.5879    249.37782    533.77121   -70.969034    61.578239    95.752688   -115.39963    60.881229    95.665296   -71.118135    61.634209     105.9206   -115.14361    60.841242    106.24382            0            0            0   -73.436147    61.096118    25.834922 
 1003600    89.137283    4727.5314    4713.8154    305.16626    534.37413   -70.934905    61.562015    95.793728   -115.36762    60.954907    95.763858   -71.083237    61.589972    105.97452   -115.07364    60.917695    106.37293            0            0            0   -73.443393    61.102342    25.846372 
 1003700    89.137283    4584.5173    4673.6387    351.96529    531.93272   -70.967717    61.621117    95.809955   -115.27791    60.993003    95.763362   -71.134967    61.675693    105.98102     -114.981    60.897308    106.40775            0            0            0    -73.45064    61.108565    25.857822 
 1003800    89.137283    4667.6864    4773.4052     365.3162    533.15955     -70.9025    61.636597    95.783905   -115.24798    61.036427    95.750732   -71.065099    61.609479    105.90488   -114.96551    60.914607    106.38106            0            0            0   -73.457886    61.114789    25.869272 
 1003900    89.137283    4443.5993    4428.7185    70.207793    536.30672    -70.86883    61.570244    95.869197   -115.28253    61.067972    95.725104   -71.003407    61.504969     106.0931   -115.02574     60.96592    106.34901            0            0            0   -73.465133    61.121012    25.880722 
 1004000    89.137283    4828.6512    4505.3135    287.10292    530.18995   -70.843851    61.608683    95.860727   -115.29462    61.135455    95.865384   -70.951797    61.522373    106.13118   -114.98928    61.062851    106.48791            0            0            0   -73.472379    61.127236    25.892172 
 1004100    89.137283    4651.9157    4434.3704    -8.848625    534.19856    -70.80023    61.700718    95.794679   -115.33064    61.147251    95.885172    -70.91274    61.604891    105.99648   -115.01926    61.079654    106.47389            0            0            0   -73.479626    61.133459    25.903622 
 1004200    89.137283    4742.5095    4566.6142   -106.39646    536.45388   -70.809993    61.713026    95.743137   -115.28749    60.974416    95.874019   -70.922732    61.714885    105.93269   -114.98601    60.873502    106.47848            0            0            0   -73.486872    61.139682    25.915072 
 1004300    89.137283    4845.4236    4897.8588    73.738526    532.58064   -70.828978    61.768132    95.764836   -115.27084    61.027156    95.896553   -70.940545    61.797944    105.92044   -114.99242    60.874767    106.46682            0            0            0   -73.494119    61.145906    25.926522 
 1004400    89.137283    4774.1119     4649.457   -65.663375    530.80757   -70.805061    61.732481    95.835413   -115.20974    61.035923    95.964879   -70.877051    61.798365    106.04211   -114.92454    60.892174    106.52725            0            0            0   -73.501365    61.152129    25.937972 
 1004500    89.137283    4392.6409    4173.4524   -150.26422    536.05917   -70.799778    61.845182    95.868834   -115.12511    60.996442    95.957576   -70.879874     61.88875    106.09929    -114.8077    60.885488    106.58079            0            0            0   -73.508612    61.158353    25.949422 
 1004600    89.137283    4472.9691    4277.0066   -62.554508    533.35089   -70.818016    61.868322    95.877254   -115.15436    60.960648    95.911489   -70.917111    61.939364    106.05997   -114.80677    60.864926    106.54446            0            0            0   -73.515858    61.164576    25.960872 
 1004700    89.137283    4534.5029    4602.4429   -57.522453    532.14293   -70.813298    61.928335    95.914353    -115.2306    61.021038    95.965125   -70.896469    62.002603    106.06854   -114.89507    60.986288    106.61302            0            0            0   -73.523105      61.1708    25.972322 
 1004800    89.137283    4505.7638    4507.6378    29.425737    530.73356   -70.828629     61.91168    95.986526   -115.27694    61.064047    96.061771   -70.938096    61.926412    106.15366   -114.94784    61.100967    106.71016            0            0            0   -73.530351    61.177023    25.983772 
 1004900    89.137283    4197.6238    4407.4885   -263.51565    532.22811   -70.819018    61.860146    95.957886    -115.2592    61.055379     96.02477   -70.853313    61.823421    106.19158   -114.92923    61.125486    106.61886            0            0            0   -73.537597    61.183247    25.995222 
 1005000    89.137283    4356.6624    4396.8596   -106.54545     534.2674   -70.831793    61.839183    95.947516   -115.28031     61.10983    95.917554   -70.909225    61.853394    106.20168   -114.95801    61.163839    106.48935            0            0            0   -73.544844     61.18947    26.006672 
Loop time of 10515.3 on 15 procs for 1000000 steps with 15664 atoms

Pair  time (%) = 6541.2 (62.2064)
Neigh time (%) = 112.353 (1.06847)
Comm  time (%) = 3052.84 (29.0324)
Outpt time (%) = 65.09 (0.619002)
Other time (%) = 743.826 (7.07374)

Nlocal:    1044.27 ave 1399 max 35 min
Histogram: 3 0 0 0 0 0 0 1 2 9
Nghost:    3286.4 ave 4358 max 859 min
Histogram: 3 0 0 0 0 0 3 0 3 6
Neighs:    72951 ave 98598 max 826 min
Histogram: 3 0 0 0 0 0 0 1 2 9

Total # of neighbors = 1094265
Ave neighs/atom = 69.8586
Neighbor list builds = 28618
Dangerous builds = 0



