LAMMPS (16 Feb 2016)
# ------------------------ INITIALIZATION ----------------------------
echo both
#log		log.c
units           metal
dimension       3
boundary        p p p
atom_style      atomic
shell         mkdir  cfg
WARNING: Shell command 'mkdir' failed with error 'File exists' (../input.cpp:1126)
shell         mkdir  dump
WARNING: Shell command 'mkdir' failed with error 'File exists' (../input.cpp:1126)


# ----------------------- ATOM DEFINITION & Force Field -------------
lattice         fcc 3.615 #origin 0.0 0.0 0.0 orient x 1 -1 0 orient y 1 1 -2 orient z 1 1 1
Lattice spacing in x,y,z = 3.615 3.615 3.615
variable        Lx equal 65
variable        Ly equal 3
variable        Lz equal 260
variable        boxLZ equal 270
region          SYSTEM block -${Lx} ${Lx} -${Ly} ${Ly} -${Lz} 0 units lattice
region          SYSTEM block -65 ${Lx} -${Ly} ${Ly} -${Lz} 0 units lattice
region          SYSTEM block -65 65 -${Ly} ${Ly} -${Lz} 0 units lattice
region          SYSTEM block -65 65 -3 ${Ly} -${Lz} 0 units lattice
region          SYSTEM block -65 65 -3 3 -${Lz} 0 units lattice
region          SYSTEM block -65 65 -3 3 -260 0 units lattice
region          BOX block -${Lx} ${Lx} -${Ly} ${Ly} -${boxLZ} 5 units lattice
region          BOX block -65 ${Lx} -${Ly} ${Ly} -${boxLZ} 5 units lattice
region          BOX block -65 65 -${Ly} ${Ly} -${boxLZ} 5 units lattice
region          BOX block -65 65 -3 ${Ly} -${boxLZ} 5 units lattice
region          BOX block -65 65 -3 3 -${boxLZ} 5 units lattice
region          BOX block -65 65 -3 3 -270 5 units lattice
create_box      1 BOX
Created orthogonal box = (-234.975 -10.845 -976.05) to (234.975 10.845 18.075)
  16 by 1 by 32 MPI processor grid
create_atoms    1 region SYSTEM
Created 812760 atoms

delete_atoms     porosity BOX 0.0005 3586
Deleted 432 atoms, new total = 812328

#---------------------------------------------------------------------


pair_style      eam/alloy
pair_coeff  	  * * Cu01.eam.alloy Cu

#----------------------------------------------------------------------
velocity       all create 300.0 17395 mom yes rot yes dist gaussian
fix             1 all npt temp 300 300 0.1 iso 0.0 0.0 2
run      10000
Neighbor list info ...
  1 neighbor list requests
  update every 1 steps, delay 10 steps, check yes
  max neighbors/atom: 2000, page size: 100000
  master list distance cutoff = 7.50679
  ghost atom cutoff = 7.50679
  binsize = 3.75339 -> bins = 126 6 265
Memory usage per processor = 2.15788 Mbytes
Step Temp E_pair E_mol TotEng Press Volume 
       0          300   -2873357.9            0   -2841857.5    2838.1757     10133330 
   10000    299.96943   -2841239.2            0   -2809741.9    9.2311653     10268214 
Loop time of 126.311 on 512 procs for 10000 steps with 812328 atoms

Performance: 6.840 ns/day, 3.509 hours/ns, 79.169 timesteps/s
99.9% CPU use with 512 MPI tasks x no OpenMP threads

MPI task timing breakdown:
Section |  min time  |  avg time  |  max time  |%varavg| %total
---------------------------------------------------------------
Pair    | 35.118     | 81.662     | 89.737     | 110.4 | 64.65
Neigh   | 0.00022697 | 0.073206   | 0.085312   |   6.0 |  0.06
Comm    | 2.7475     | 12.018     | 36.042     | 134.2 |  9.51
Output  | 0.0008111  | 0.00082537 | 0.00084901 |   0.0 |  0.00
Modify  | 26.229     | 31.534     | 86.697     | 178.6 | 24.97
Other   |            | 1.023      |            |       |  0.81

Nlocal:    1586.58 ave 1813 max 0 min
Histogram: 16 0 0 0 16 0 0 8 99 373
Nghost:    4600.12 ave 5153 max 502 min
Histogram: 16 0 0 14 2 0 16 0 99 365
Neighs:    111713 ave 127402 max 0 min
Histogram: 16 0 0 16 0 0 0 9 44 427

Total # of neighbors = 57197171
Ave neighs/atom = 70.4114
Neighbor list builds = 12
Dangerous builds = 0
unfix 1

fix            2 all nvt temp 300.0 300.0 0.1

run      10000
Memory usage per processor = 2.15847 Mbytes
Step Temp E_pair E_mol TotEng Press 
   10000    299.96943   -2841239.2            0   -2809741.9    9.2311653 
   20000    299.13543   -2841186.8            0   -2809777.1   -570.07188 
Loop time of 119.848 on 512 procs for 10000 steps with 812328 atoms

Performance: 7.209 ns/day, 3.329 hours/ns, 83.439 timesteps/s
99.9% CPU use with 512 MPI tasks x no OpenMP threads

MPI task timing breakdown:
Section |  min time  |  avg time  |  max time  |%varavg| %total
---------------------------------------------------------------
Pair    | 34.567     | 80.129     | 89.126     | 109.0 | 66.86
Neigh   | 2.1935e-05 | 0.006047   | 0.007194   |   1.7 |  0.01
Comm    | 2.7106     | 11.662     | 35.491     | 134.9 |  9.73
Output  | 0.0002048  | 0.00021596 | 0.0002408  |   0.0 |  0.00
Modify  | 17.298     | 23.21      | 77.282     | 204.4 | 19.37
Other   |            | 4.84       |            |       |  4.04

Nlocal:    1586.58 ave 1820 max 0 min
Histogram: 16 0 0 0 16 0 0 9 175 296
Nghost:    4605.93 ave 5152 max 501 min
Histogram: 16 0 0 13 3 0 16 0 101 363
Neighs:    111699 ave 129036 max 0 min
Histogram: 16 0 0 16 0 0 0 11 169 300

Total # of neighbors = 57190089
Ave neighs/atom = 70.4027
Neighbor list builds = 1
Dangerous builds = 0
reset_timestep 0
unfix    2
#---------------------- DEFINE Laser GERION and GROUP ----------------
region       R1  block -75  75  INF  INF  INF  5  units box
group        G1 region R1
259326 atoms in group G1
group        G2 subtract all G1
553002 atoms in group G2


#define     temperature/pressure calculation  group
variable    x1atom atom "x>=0  &&  x<4 &&  z>-40 && z<1"     ##NEW!!!!!!!!!!!!
variable    x2atom atom "x>=-234.98  &&  x<-230.98 &&  z>-40 && z<1"
variable    x3atom atom "x>=0  &&  x<4 &&  z>-20 && z<1"
variable    x4atom atom "x>=-234.98  &&  x<-230.98 &&  z>-20 && z<1"
variable    x5atom atom "x>=196  &&  x<200 &&  z>-40 && z<1"

group       x1atom variable x1atom
320 atoms in group x1atom
group       x2atom variable x2atom
276 atoms in group x2atom
group       x3atom variable x3atom
168 atoms in group x3atom
group       x4atom variable x4atom
144 atoms in group x4atom
group       x5atom variable x5atom
325 atoms in group x5atom


compute      COM1x x1atom com
compute      COM2x x2atom com
compute      COM3x x3atom com
compute      COM4x x4atom com
compute      COM5x x5atom com

compute      COMall all com

#Temperature profile
#variable      Tprofile atom 300*(1+(step/5000)*2.5*exp(z/40))
#variable tmp equal "lz"
#variable L0 equal ${tmp}
variable      Tprofile atom  300+600*(step/5000)*exp(z/40)*exp(-x*x/1289)


# ------------------------- SETTINGS ---------------------------------
thermo          100
thermo_style    custom step lx pxx pyy pzz temp c_COM1x[1] c_COM1x[2] c_COM1x[3] c_COM2x[1] c_COM2x[2] c_COM2x[3] c_COM3x[1] c_COM3x[2] c_COM3x[3] c_COM4x[1] c_COM4x[2] c_COM4x[3]  c_COM5x[1] c_COM5x[2] c_COM5x[3] c_COMall[1] c_COMall[2] c_COMall[3]

timestep       0.002


compute dispall all displace/atom
# ---------------- Run Laser Material Interaction --------------------
#dump          1 all custom 1000 dump/z1dump.atom id type x y z c_dispall[1]  c_dispall[2]  c_dispall[3] c_dispall[4]
#dump          2 all cfg 100 cfg/*.cfg mass type xs ys zs
#dump_modify   2 element Al

#relax for 2 PS
#fix           1 all nvt temp 300.0 300.0 0.1
#run  1000
#unfix         1

fix           1  all nve
fix           3temp  all  langevin  v_Tprofile  0  0.1  378411   #TEST ALL
run           5000
Memory usage per processor = 2.53347 Mbytes
Step Lx Pxx Pyy Pzz Temp COM1x[1] COM1x[2] COM1x[3] COM2x[1] COM2x[2] COM2x[3] COM3x[1] COM3x[2] COM3x[3] COM4x[1] COM4x[2] COM4x[3] COM5x[1] COM5x[2] COM5x[3] COMall[1 COMall[2 COMall[3 
       0    472.02597   -541.00677   -536.45219   -632.75668    299.13543    2.2952467    -1.143295    -19.26191   -233.32592  -0.90092083    -19.23919    2.2607742     -0.96808   -9.3937406   -233.34286  -0.91176673   -9.2563131    198.30339  -0.96428062   -20.015682  -0.90640577  -0.90772213   -469.90663 
     100    472.02597    -512.2381   -548.30772   -634.69733    299.35856    2.2635466   -1.1702753    -19.26955   -233.32141  -0.90196123   -19.217613    2.2549699   -1.0002126    -9.393503   -233.36008  -0.92461668   -9.2271591    198.28549  -0.95595808   -20.030098  -0.90646086  -0.90718461   -469.90739 
     200    472.02597   -523.29143   -520.61762    -598.4609    300.27521     2.266262   -1.1611199   -19.251707    -233.3201  -0.89605835    -19.23104    2.2537702  -0.98982181      -9.3738   -233.33742  -0.90641175   -9.2541563    198.27558  -0.97225451   -20.028531  -0.90695716  -0.90689029   -469.90781 
     300    472.02597   -529.10998   -523.58538   -610.60078    299.84577    2.2586153   -1.1610906   -19.266248   -233.33651   -0.8703782   -19.212558    2.2384497   -1.0025814   -9.3818329   -233.36398  -0.89169071   -9.2239658    198.28388  -0.96959542   -20.040004  -0.90711499  -0.90688372   -469.90802 
     400    472.02597   -504.22442   -515.55441   -616.92358    300.37331    2.2794144   -1.1770923   -19.254334   -233.34206  -0.87093468   -19.218639    2.2549257   -1.0121684   -9.3607041   -233.37271  -0.87761899   -9.2454788    198.31283  -0.97209482   -20.028647  -0.90715936  -0.90644713    -469.9085 
     500    472.02597   -466.56539   -480.40398   -579.59364    300.40849    2.2929639   -1.1538374   -19.260283   -233.32954  -0.88246163   -19.221666    2.2691804  -0.99426022   -9.3678048   -233.36324  -0.90792789   -9.2619226    198.30436  -0.93562328   -20.013168  -0.90749581  -0.90643651   -469.90836 
     600    472.02597   -493.05548   -506.45285    -588.3168    300.14022    2.2779829   -1.1767758   -19.235759   -233.34773  -0.90798104   -19.218149    2.2619962   -1.0236696   -9.3495441   -233.37796  -0.95209245   -9.2663922    198.30271  -0.95906247   -20.023305  -0.90683509   -0.9065372   -469.90791 
     700    472.02597   -484.42154   -455.63952    -595.3683    300.20833    2.2756949   -1.1859458   -19.232116   -233.33623  -0.90272233    -19.21634    2.2527246   -1.0048228   -9.3349729   -233.34907  -0.93500758    -9.252208    198.29505  -0.95554658   -20.034347  -0.90668023  -0.90591163   -469.90751 
     800    472.02597     -495.087   -503.42967   -569.96084    300.39132    2.2894833   -1.2103893   -19.244986   -233.32776  -0.89484363   -19.235072    2.2636704   -1.0282855   -9.3528264   -233.37014  -0.92922013   -9.2705214    198.29847  -0.98167387   -20.050179  -0.90718178  -0.90524012   -469.90712 
     900    472.02597   -488.75802   -455.53135   -559.73421    301.10829    2.2900748    -1.171676   -19.254763   -233.31648  -0.90774742   -19.220075    2.2742948  -0.98790691   -9.3597536   -233.35532  -0.93420947   -9.2496006    198.29574  -0.95899348     -20.0379  -0.90720137   -0.9052383   -469.90654 
    1000    472.02597    -479.7015    -478.8789   -536.17146    300.72304    2.2730616   -1.1817113   -19.263131   -233.32797  -0.89052169   -19.204058    2.2527829   -1.0030007   -9.3702291   -233.37792   -0.9102253   -9.2260115      198.329  -0.95351524   -20.042933  -0.90688625  -0.90538556   -469.90695 
    1100    472.02597   -467.32226    -434.1054   -543.45581    300.27581    2.2768675   -1.1692699   -19.257596   -233.32039  -0.88911919   -19.202785    2.2491565  -0.97911602   -9.3853774   -233.35196  -0.88778471   -9.2278174     198.3303  -0.95271366   -20.028397  -0.90703885  -0.90502569   -469.90673 
    1200    472.02597   -436.45738   -445.83031   -552.55934    300.59248    2.2764569   -1.1629272   -19.253298   -233.32538  -0.89240257   -19.218166    2.2525924  -0.96175059   -9.3765268   -233.34934  -0.90390742   -9.2806445    198.32633  -0.95403535   -20.021319  -0.90669895  -0.90532378   -469.90646 
    1300    472.02597   -473.56798   -439.18921   -558.44772    300.42431     2.275327   -1.1824048   -19.264907   -233.30978  -0.91289422   -19.219264    2.2633482  -0.97807533   -9.3791317   -233.33662  -0.92996532   -9.2616395     198.3365  -0.97402416   -20.035476  -0.90632999   -0.9051754   -469.90594 
    1400    472.02597    -490.7516    -444.3235   -540.60668    300.92216    2.2849745   -1.1779423   -19.245932   -233.30482  -0.89215059    -19.21646    2.2759309  -0.96782545   -9.3551691   -233.32574  -0.90751015   -9.2797057    198.31804  -0.97540028   -20.053025  -0.90646791   -0.9045708   -469.90519 
    1500    472.02597   -420.56363   -425.32765   -496.20013    300.98757    2.2638182    -1.175642   -19.246097   -233.29346  -0.90169176   -19.240423    2.2474971   -0.9492079   -9.3593442   -233.30005  -0.91473389   -9.2901776    198.32577  -0.96091697   -20.045083  -0.90659811   -0.9041579   -469.90501 
    1600    472.02597    -430.4093   -443.48128    -546.8425    301.39892     2.293231   -1.1633396    -19.25143   -233.30113  -0.90215096   -19.247513      2.26893  -0.95929564   -9.3767999   -233.30123  -0.88509175   -9.2948735    198.33859  -0.94522151   -20.047961  -0.90719428  -0.90399001   -469.90478 
    1700    472.02597   -426.72565    -427.9702   -499.38482     301.4872    2.2900119   -1.1300142   -19.267215   -233.30265  -0.90620812   -19.231711    2.2509837  -0.94335421   -9.3791684   -233.31023  -0.90704242   -9.2825549    198.31566   -0.9483595   -20.039249  -0.90771627  -0.90432737   -469.90458 
    1800    472.02597   -427.06294   -403.16201   -513.00305    301.34379    2.2850555   -1.1243978    -19.28343   -233.29646  -0.90879148    -19.20733    2.2585451  -0.96120201   -9.3873014   -233.30626  -0.90237471   -9.2644203    198.32042  -0.94305649   -20.055908  -0.90802783  -0.90431946   -469.90447 
    1900    472.02597   -411.34593    -392.4438   -496.03124    301.43607    2.2944542   -1.1603714   -19.297742   -233.28526  -0.90959159   -19.233643    2.2907905  -0.98940649   -9.3947482   -233.32191  -0.89796928   -9.2636472      198.299  -0.95127663   -20.056236   -0.9079255  -0.90463018   -469.90481 
    2000    472.02597   -413.49307   -401.18695   -507.90847    301.35961    2.3040703   -1.1699207   -19.306481   -233.30182   -0.9093531   -19.234298    2.3023823  -0.99901441   -9.4045721   -233.33284  -0.88837921   -9.2552218     198.3122  -0.96405828   -20.047464  -0.90815716  -0.90470963    -469.9049 
    2100    472.02597   -427.80586   -408.05484   -515.29195    301.49902    2.2886741   -1.1438819   -19.264713   -233.30626  -0.89754058   -19.232374    2.2912091  -0.97834352   -9.3646109   -233.30927  -0.88250123   -9.2404743    198.31649  -0.95633088   -20.053627  -0.90872302  -0.90395151   -469.90541 
    2200    472.02597   -417.33882   -361.97225   -536.65365    301.93052    2.2897892   -1.1553509   -19.244598   -233.30019  -0.88471496   -19.213904    2.3053618   -1.0156808   -9.3266132   -233.31187  -0.85139414   -9.2329682     198.3203  -0.93786088    -20.04503  -0.90913141  -0.90409005   -469.90573 
    2300    472.02597    -424.1156   -402.71031   -521.87896    301.76694    2.2613749   -1.1738983    -19.24871   -233.29796  -0.89679953   -19.214501    2.2911196   -1.0150742   -9.3574958   -233.32288  -0.91106065   -9.2313492    198.30897   -0.9476807     -20.0251  -0.90896035   -0.9041494   -469.90562 
    2400    472.02597   -385.06186   -378.16785    -497.3249    301.81296    2.2699376   -1.1624225   -19.256635   -233.27206  -0.90815122   -19.230337    2.2716102   -1.0205692   -9.3850257   -233.30018   -0.9196432   -9.2561957     198.3131  -0.94017208    -20.02057  -0.90889012  -0.90461374   -469.90531 
    2500    472.02597    -382.4572   -385.92563   -514.14359    301.77891    2.2709267   -1.1498852   -19.252064   -233.29537  -0.93122431   -19.220235    2.2783986   -1.0000225    -9.406629   -233.32152  -0.92489417   -9.2093744     198.3192  -0.92678994   -20.028477   -0.9088095  -0.90477593   -469.90501 
    2600    472.02597   -383.33141   -372.25862    -478.7788    301.74436    2.2833436   -1.1489123   -19.238415   -233.27608  -0.93596059   -19.238202    2.2788786   -1.0058667   -9.3667974   -233.28785  -0.93954036   -9.2251866    198.30923  -0.94307792   -20.025922  -0.90922862  -0.90493252   -469.90505 
    2700    472.02597   -393.60408   -402.77197   -496.33951    302.37503    2.2638662   -1.1395702   -19.235728   -233.26774  -0.93913718   -19.252236    2.2571893  -0.99780823   -9.3605126   -233.28766  -0.94476637   -9.2560224    198.31748   -0.9392175   -20.010955  -0.90901484   -0.9051734   -469.90564 
    2800    472.02597    -404.7418    -416.4337   -505.50715    302.51128    2.2842547   -1.1765488   -19.211218   -233.27405  -0.93701292   -19.257007    2.2394438   -1.0188533   -9.3083249   -233.29082  -0.95158831   -9.2565401      198.308  -0.92920415   -20.012114  -0.90899725  -0.90586231   -469.90667 
    2900    472.02597   -410.66675   -378.56905   -532.85585    302.49606    2.2755352   -1.1603174   -19.185545   -233.26848  -0.93348534   -19.253781    2.2311089  -0.98714505   -9.2824965   -233.26855  -0.94697629   -9.2484529    198.33007  -0.94011675   -20.014106  -0.90857932  -0.90581802   -469.90677 
    3000    472.02597   -400.62198   -399.32827   -524.82032     302.1529    2.2672123    -1.152328   -19.199601   -233.28851  -0.92147002   -19.260537    2.2400541    -0.985566   -9.2980849   -233.30177  -0.95257214   -9.2792444    198.33045  -0.93658788   -20.018437   -0.9084806  -0.90586886   -469.90675 
    3100    472.02597   -441.57539   -406.78735   -523.16598    302.59734    2.2705966   -1.1581776   -19.214051   -233.30041  -0.92596096   -19.248039     2.229605  -0.99120769   -9.2967288   -233.32562  -0.94360115   -9.2758681    198.33153  -0.93698846   -20.018747  -0.90811964   -0.9061384   -469.90663 
    3200    472.02597   -406.38087   -411.71422   -516.15165    301.91007     2.296251   -1.1394241   -19.220781   -233.29343   -0.9394253   -19.251382    2.2524509  -0.97573568   -9.3172552   -233.32212  -0.96907806   -9.2701453    198.33913  -0.96441899   -20.012211   -0.9077712    -0.906377   -469.90656 
    3300    472.02597   -381.47375   -392.94712   -517.68975    302.29975    2.2924035    -1.139495   -19.235148   -233.31537  -0.94780931   -19.225771     2.263481   -0.9880114   -9.3175714   -233.32585   -0.9789144   -9.2763843    198.33301   -0.9443515    -20.03207  -0.90813524  -0.90670774   -469.90665 
    3400    472.02597   -368.57279   -360.32144   -477.11729    302.52509    2.2949418   -1.1233846   -19.176145   -233.33671   -0.9422503    -19.22594    2.2660216  -0.96965569   -9.2354826   -233.35718   -0.9604385   -9.2650092    198.33555  -0.93939292   -20.055793  -0.90834365  -0.90685782    -469.9067 
    3500    472.02597    -325.8371   -373.31885   -456.04748    302.60647    2.2812286   -1.1395495   -19.166112   -233.31765  -0.92844789   -19.217755     2.266516   -1.0031457   -9.2066992   -233.32917  -0.93634058   -9.2585947    198.32225  -0.91568833   -20.081507  -0.90826732   -0.9068287   -469.90727 
    3600    472.02597   -309.58573   -334.76666   -476.91592    302.82416    2.3065367   -1.1482519   -19.177196    -233.3216  -0.91728381   -19.250309    2.2984586   -1.0000243   -9.2433837   -233.34632   -0.9269152   -9.2956377    198.33062  -0.91514085   -20.060292  -0.90835084  -0.90678857   -469.90774 
    3700    472.02597   -379.91776   -366.43364   -461.20315     302.6822    2.3043339   -1.1466737   -19.197294   -233.31687  -0.92318982   -19.265126    2.3117372  -0.99255119   -9.2510608   -233.32954  -0.94041849   -9.3073417    198.33001  -0.93242826   -20.043162  -0.90798756  -0.90727755   -469.90797 
    3800    472.02597   -326.20622   -327.62875   -477.29808    302.97745    2.2810401   -1.1749925    -19.19167   -233.29851  -0.92037606   -19.273402    2.2793884   -1.0115297   -9.2580402   -233.31621  -0.93447452   -9.3027532    198.31797  -0.90252165    -20.04369  -0.90801872  -0.90755392   -469.90788 
    3900    472.02597   -370.19842   -354.30659   -446.42371    303.14041    2.2913616   -1.1292956   -19.176194   -233.30921  -0.90825143   -19.253743      2.30836  -0.94745941   -9.2509859   -233.33059  -0.90224245   -9.2771093    198.30706  -0.90698823   -20.021216   -0.9081314  -0.90827077   -469.90832 
    4000    472.02597   -383.06832   -335.81437   -429.93298    302.70499    2.2973416   -1.1092595   -19.158086   -233.30551  -0.91750859   -19.245644    2.2895821  -0.96446945   -9.2095647   -233.33489  -0.91982569   -9.2815175    198.30202  -0.90712205   -20.009876  -0.90775914  -0.90868645   -469.90775 
    4100    472.02597   -325.79576   -311.07969   -442.26493    302.91984    2.3040939   -1.0937944   -19.152225   -233.31485  -0.93751134   -19.249115    2.2965683  -0.97601375   -9.2090078   -233.33991  -0.94363799   -9.2765485    198.31208  -0.91055535   -20.023274  -0.90789134  -0.90844168   -469.90709 
    4200    472.02597   -317.01442   -306.66393   -429.82764     303.2019    2.3019662   -1.0830674   -19.158487   -233.32996  -0.93061545   -19.245548    2.2929536  -0.94717054   -9.1804404    -233.3449  -0.93177557    -9.285385     198.3098  -0.89686134   -20.018238  -0.90757477   -0.9083927   -469.90702 
    4300    472.02597   -314.85941     -318.645   -427.81589    303.20587    2.2988803   -1.1139158   -19.134526   -233.33556  -0.92447075    -19.25972    2.2751625   -0.9627076   -9.1620775   -233.34568  -0.94739895   -9.2837936    198.31039  -0.88179426   -20.010612  -0.90748032  -0.90827069    -469.9076 
    4400    472.02597   -370.25438   -353.38961   -474.72882    303.41301    2.2959345   -1.1234157    -19.12394   -233.30147  -0.91431688   -19.266857    2.2623828  -0.96634891   -9.1377881   -233.30064  -0.94466553     -9.29082    198.30833  -0.88538456   -20.020621  -0.90754994  -0.90848812    -469.9078 
    4500    472.02597   -321.06613   -302.65304   -406.42067    303.53095    2.3250235   -1.1352401   -19.120399   -233.30365  -0.92980537   -19.255922    2.2894371  -0.97113395   -9.1643876    -233.3094  -0.96247858    -9.277055    198.32287  -0.88505909   -20.035184  -0.90761145  -0.90860685   -469.90845 
    4600    472.02597   -290.46252   -283.70739   -364.58718    303.65108    2.3192923   -1.1270141   -19.164518   -233.29449  -0.92747402   -19.270753     2.289958     -0.96958   -9.2037198   -233.29958  -0.95271491   -9.3140142    198.32692  -0.92318295   -20.025859  -0.90778094  -0.90900879   -469.90896 
    4700    472.02597   -296.98743   -272.62788    -377.7643    303.83593    2.3452202   -1.1412276   -19.178708   -233.29664  -0.92740476   -19.249654    2.2954455  -0.98108453   -9.2096414    -233.2886   -0.9464018    -9.278767    198.31807   -0.9189585   -20.045308  -0.90736318  -0.90957551   -469.90928 
    4800    472.02597   -303.80307     -277.039   -366.33135    303.39739    2.3707315   -1.1276853   -19.190156   -233.29788  -0.90999562   -19.254557    2.3511467   -0.9666599   -9.2109907   -233.30107  -0.90448102   -9.2823708    198.32074  -0.93746755   -20.055953  -0.90742188   -0.9093694   -469.90991 
    4900    472.02597   -260.84917    -253.9839   -351.05115    303.71468    2.3500085   -1.1277486   -19.205339   -233.29313  -0.91749684   -19.231369    2.3188292  -0.99926984   -9.2450522   -233.28615   -0.9038569   -9.2475119    198.32085  -0.94499065   -20.048019  -0.90763026  -0.90933837    -469.9099 
    5000    472.02597   -272.91475   -324.89168    -426.5937    303.59854    2.3127353   -1.1251294   -19.224855    -233.3008  -0.92256845   -19.266055    2.2903427  -0.98590357   -9.2659955   -233.29188  -0.91322028    -9.283199    198.32929  -0.94808144   -20.044508  -0.90750808  -0.90935736   -469.91031 
Loop time of 64.0631 on 512 procs for 5000 steps with 812328 atoms

Performance: 13.487 ns/day, 1.780 hours/ns, 78.048 timesteps/s
99.9% CPU use with 512 MPI tasks x no OpenMP threads

MPI task timing breakdown:
Section |  min time  |  avg time  |  max time  |%varavg| %total
---------------------------------------------------------------
Pair    | 17.555     | 40.544     | 44.512     |  76.8 | 63.29
Neigh   | 0.00022364 | 0.061125   | 0.072835   |   5.5 |  0.10
Comm    | 1.8799     | 6.1619     | 18.584     |  94.7 |  9.62
Output  | 0.14174    | 0.2691     | 0.59431    |  14.5 |  0.42
Modify  | 0.046942   | 2.7734     | 3.2792     |  34.2 |  4.33
Other   |            | 14.25      |            |       | 22.25

Nlocal:    1586.58 ave 1801 max 0 min
Histogram: 16 0 0 0 16 0 0 8 8 464
Nghost:    4604 ave 5137 max 501 min
Histogram: 16 0 0 13 3 0 16 0 78 386
Neighs:    111714 ave 127950 max 0 min
Histogram: 16 0 0 16 0 0 0 10 84 386

Total # of neighbors = 57197371
Ave neighs/atom = 70.4117
Neighbor list builds = 10
Dangerous builds = 0


variable  com1_x equal "c_COM1x[1]"
variable  com1_y equal "c_COM1x[2]"
variable  com1_z equal "c_COM1x[3]"
variable  com2_x equal "c_COM2x[1]"
variable  com2_y equal "c_COM2x[2]"
variable  com2_z equal "c_COM2x[3]"
variable  com3_x equal "c_COM3x[1]"
variable  com3_y equal "c_COM3x[2]"
variable  com3_z equal "c_COM3x[3]"
variable  com4_x equal "c_COM4x[1]"
variable  com4_y equal "c_COM4x[2]"
variable  com4_z equal "c_COM4x[3]"
variable  com5_x equal "c_COM5x[1]"
variable  com5_y equal "c_COM5x[2]"
variable  com5_z equal "c_COM5x[3]"
variable  comall_x equal "c_COMall[1]"
variable  comall_y equal "c_COMall[2]"
variable  comall_z equal "c_COMall[3]"


fix          2 all print 100 "${com1_x}   ${com1_y}   ${com1_z}  ${com2_x}   ${com2_y}   ${com2_z} ${com3_x}   ${com3_y}   ${com3_z} ${com4_x}   ${com4_y}   ${com4_z} ${com5_x}   ${com5_y}   ${com5_z} ${comall_x}   ${comall_y}   ${comall_z}" file COM.data screen no
#-------------------------- Wave Propagation -------------------------
unfix        3temp
run          1000000
Memory usage per processor = 2.53347 Mbytes
Step Lx Pxx Pyy Pzz Temp COM1x[1] COM1x[2] COM1x[3] COM2x[1] COM2x[2] COM2x[3] COM3x[1] COM3x[2] COM3x[3] COM4x[1] COM4x[2] COM4x[3] COM5x[1] COM5x[2] COM5x[3] COMall[1 COMall[2 COMall[3 
    5000    472.02597   -272.91475   -324.89168    -426.5937    303.59854    2.3127353   -1.1251294   -19.224855    -233.3008  -0.92256845   -19.266055    2.2903427  -0.98590357   -9.2659955   -233.29188  -0.91322028    -9.283199    198.32929  -0.94808144   -20.044508  -0.90750808  -0.90935736   -469.91031 
    5100    472.02597   -300.15508    -305.6772   -439.81638    303.76222     2.328223   -1.1168679   -19.219988   -233.29838  -0.89011041   -19.277572    2.2831634  -0.97429871   -9.2917347   -233.29458  -0.86395113   -9.2942479    198.32741  -0.91685632   -20.064628  -0.90675417  -0.90931366   -469.90995 
    5200    472.02597   -324.46295   -310.07978   -453.84342    303.17078    2.3161373   -1.1355766   -19.194932   -233.31894  -0.89956341   -19.263797    2.2466259  -0.97809762   -9.2573732   -233.32584   -0.8779345   -9.2675322    198.30701  -0.91488803   -20.062066  -0.90600026  -0.90926997   -469.90959 
    5300    472.02597   -320.04297   -320.67884   -450.84721    303.30896    2.3056572   -1.1475402   -19.152542   -233.35756  -0.91056195   -19.292067    2.2230638   -0.9899239   -9.2122252   -233.36723  -0.91484686   -9.2831353    198.30627  -0.86306654   -20.064792  -0.90524634  -0.90922627   -469.90923 
    5400    472.02597   -366.99656   -337.82442   -456.06238    303.57047    2.3038039   -1.1460962   -19.112638   -233.36669  -0.90530813   -19.302314     2.206186   -1.0006191   -9.1463391   -233.38159  -0.90543007   -9.3171286    198.30987  -0.84966079   -20.031879  -0.90449243  -0.90918258   -469.90887 
    5500    472.02597   -338.82587   -328.28717   -478.75089    303.27047    2.3086986   -1.1518828    -19.09338   -233.34694  -0.87214965   -19.281298    2.2166357  -0.98572406   -9.1055411   -233.35462  -0.86854926     -9.29871    198.32369  -0.85693047   -20.036243  -0.90373851  -0.90913888   -469.90851 
    5600    472.02597   -358.41452   -372.75992   -487.13695    303.54504    2.2918176   -1.1508601    -19.06125   -233.36792  -0.86086803   -19.290854    2.2278356  -0.96429888   -9.0754448   -233.37892  -0.84437027   -9.2843621    198.30164   -0.8673783   -20.031249   -0.9029846  -0.90909519   -469.90815 
    5700    472.02597    -355.2702   -348.36209   -466.55213    303.62639    2.2939992   -1.1597564   -19.057768   -233.39037  -0.85769672   -19.299285    2.2425642  -0.97870669   -9.0630871   -233.40436   -0.8564135    -9.300051     198.3006  -0.89795744    -20.02861  -0.90223068  -0.90905149   -469.90779 
    5800    472.02597   -353.70813   -378.57031   -476.11177    303.72373    2.2892715   -1.2016931   -19.065455   -233.39701  -0.82662348   -19.329206    2.2554114   -1.0261014   -9.0913569   -233.41862  -0.82632139   -9.3474976    198.29761  -0.90451596   -20.038251  -0.90147677  -0.90900779   -469.90744 
    5900    472.02597   -335.53988    -282.9541   -440.29748    303.16029    2.2764892   -1.2151546   -19.060523    -233.3822    -0.826329   -19.354691    2.2680573   -1.0315034   -9.0824355   -233.39655  -0.80698404    -9.368674    198.31902  -0.89434943    -20.05613  -0.90072286   -0.9089641   -469.90708 
    6000    472.02597    -338.1095   -330.96354   -405.45434    303.47775     2.260406   -1.2197447   -19.032304   -233.38651  -0.81409424   -19.359862    2.2467553   -1.0540218   -9.0520552   -233.38494  -0.79699713   -9.3588259    198.32472  -0.90527174   -20.052185  -0.89996894   -0.9089204   -469.90672 
    6100    472.02597     -308.045   -319.32864   -431.45859    303.70498    2.2620579   -1.1921027   -19.033667   -233.40394  -0.83206277   -19.354273    2.2536044   -1.0295103   -9.0573824   -233.42119  -0.83239338   -9.3527541    198.32001  -0.91138865     -20.0829  -0.89921503  -0.90887671   -469.90636 
    6200    472.02597   -288.77229   -273.73506   -361.19179     303.5078    2.2610656    -1.212559   -19.021743   -233.37609  -0.82080122    -19.37033    2.2467918   -1.0700138    -9.071467   -233.37922   -0.8322577   -9.3579209    198.32112  -0.90463245    -20.10449  -0.89846111  -0.90883301     -469.906 
    6300    472.02597   -257.49729   -277.43487   -362.36502    303.67864    2.2576303   -1.2032582   -19.023788   -233.37026   -0.8413391   -19.379006    2.2614198   -1.0720582   -9.0715161   -233.37602  -0.84346918   -9.3864986    198.33522  -0.88754843   -20.119818   -0.8977072  -0.90878932   -469.90564 
    6400    472.02597   -246.77042   -259.72554   -321.67146    303.45275    2.2779841   -1.1939806   -19.001355    -233.3735  -0.84755898   -19.380514     2.256567   -1.0556243   -9.0581735   -233.38114  -0.86073439   -9.3850031    198.32701  -0.90271274   -20.111805  -0.89695329  -0.90874562   -469.90528 
    6500    472.02597   -273.34951   -254.04809   -336.93937     303.7516    2.2932508   -1.2175682   -18.998057   -233.39546  -0.85344172   -19.391477    2.2703295   -1.0570085   -9.0600055   -233.40841  -0.86730395   -9.4159722    198.31117   -0.8971899   -20.103225  -0.89619937  -0.90870192   -469.90492 
    6600    472.02597    -292.8997   -264.06773   -310.92028    303.92416    2.3182498   -1.2038471   -18.994798   -233.37784  -0.86742703   -19.427325     2.264576   -1.0353195    -9.061725   -233.38113  -0.88572715   -9.4326512    198.32026  -0.91009189   -20.134614  -0.89544546  -0.90865823   -469.90457 
    6700    472.02597   -236.23478   -245.92339   -312.60369     303.5177    2.3011767   -1.1944541   -19.017017    -233.3769  -0.88503259   -19.425741    2.2665931   -1.0376149   -9.0896152   -233.38376  -0.89558719   -9.4327197      198.343  -0.93559352   -20.148573  -0.89469154  -0.90861453   -469.90421 
    6800    472.02597   -214.07152   -184.73519   -274.13593     303.1219     2.285387   -1.1841362   -19.038698   -233.36404  -0.86881589   -19.406852    2.2474243   -1.0070554   -9.1174858   -233.36932   -0.8786113   -9.3956291    198.35091  -0.93379852   -20.150407  -0.89393763  -0.90857084   -469.90385 
    6900    472.02597   -226.69176   -177.55929   -302.48989    303.48456    2.2870073   -1.1838127   -19.016873   -233.35442  -0.87339633   -19.384147    2.2907322   -1.0044246   -9.1233247   -233.37124   -0.8642552   -9.3576886     198.3592  -0.93045245     -20.1447  -0.89318372  -0.90852714   -469.90349 
    7000    472.02597   -231.50132   -201.08571   -288.94359    303.25295    2.3094752   -1.1701872   -19.002884   -233.34616  -0.84293408   -19.385877    2.3165551   -1.0073624   -9.0938585   -233.36081  -0.80839836   -9.3839537    198.35945  -0.91524387   -20.109453   -0.8924298  -0.90848345   -469.90313 
    7100    472.02597   -234.32527   -237.60206   -334.50032    303.56912    2.3196153   -1.1465513   -19.006466   -233.37164   -0.8112034   -19.363674    2.3411756  -0.96851799   -9.1119891   -233.37222  -0.77765546   -9.3898472    198.37627  -0.92156819   -20.090915  -0.89167589  -0.90843975   -469.90277 
    7200    472.02597    -247.2093   -231.95741   -309.65638    303.67085     2.338329   -1.1558367   -18.984268   -233.37849   -0.8107375   -19.357094    2.3492302  -0.99469392   -9.0591569   -233.39052   -0.7710252   -9.3715521    198.36035  -0.87980377   -20.078582  -0.89092197  -0.90839606   -469.90241 
    7300    472.02597   -230.72664   -227.16359   -313.99914    303.26925    2.3299639    -1.141656    -18.93386   -233.37599  -0.79414557   -19.323784    2.3308317  -0.98677476   -8.9941895   -233.39761   -0.7857462   -9.3352702    198.38471  -0.89839453   -20.068118  -0.89016806  -0.90835236   -469.90205 
    7400    472.02597   -247.55074   -250.86036   -306.19588    303.59159    2.3352197   -1.1260531   -18.957906   -233.34445  -0.81256776   -19.315837    2.3296169  -0.97203124   -9.0156193   -233.37583  -0.84096829   -9.3283679    198.37324  -0.89401711   -20.100515  -0.88941414  -0.90830866   -469.90169 
    7500    472.02597    -226.2283   -223.69153   -318.27148     303.3039    2.3297195   -1.1338868   -18.958772    -233.3406  -0.82024777   -19.293223    2.3203389  -0.96969637   -9.0279069   -233.34875  -0.87568218   -9.2877154    198.37003  -0.90041515   -20.096744  -0.88866023  -0.90826497   -469.90134 
    7600    472.02597   -229.79363   -202.93737   -301.17974    303.46263    2.3326913   -1.1384055    -18.94498   -233.33157  -0.82691883   -19.303938    2.2928308  -0.99997558   -9.0178703   -233.32737  -0.84757166   -9.2846213     198.3893  -0.89354751   -20.095352  -0.88790632  -0.90822127   -469.90098 
    7700    472.02597   -237.92848   -224.41775   -311.23304    303.60044    2.3199188   -1.1214182   -18.939026   -233.35382  -0.84174385   -19.332529    2.2778641  -0.96587683   -8.9858377   -233.33228  -0.85749254   -9.2758019    198.36416  -0.88335571   -20.095359   -0.8871524  -0.90817758   -469.90062 
    7800    472.02597   -208.76362   -178.63522   -281.20116    303.40673    2.3602011    -1.114354   -18.954737    -233.3551  -0.86417397   -19.324151    2.3177355  -0.96444222   -8.9901268   -233.31334  -0.87702241    -9.290066    198.36275  -0.84375148    -20.08163  -0.88639849  -0.90813388   -469.90026 
    7900    472.02597   -233.10226   -223.74633   -256.19048     303.6336    2.3455886   -1.1242151   -18.952852   -233.35018  -0.83195822   -19.308655    2.3246562  -0.93679064   -8.9919235   -233.30847  -0.81179573   -9.2909175    198.34155   -0.8433077   -20.083824  -0.88564457  -0.90809019    -469.8999 
    8000    472.02597    -236.5163   -228.74387   -312.60871    303.67708    2.3432672   -1.1136841   -18.996289   -233.34909  -0.85806158   -19.292024    2.3416004  -0.92799012   -9.0215577   -233.31043   -0.8221139   -9.2550789    198.34614  -0.83205577    -20.08309  -0.88489066  -0.90804649   -469.89954 
    8100    472.02597    -220.8751   -215.80643    -282.7808    303.43814    2.3325778   -1.1032529   -19.004469   -233.37043  -0.89583841   -19.306857    2.3371091  -0.94708231   -9.0499107   -233.34915  -0.86971182   -9.2863662    198.34796  -0.84049526   -20.069323  -0.88413675   -0.9080028   -469.89918 
    8200    472.02597   -220.64002   -210.22591   -277.77255    303.71406    2.3577506   -1.0931737   -19.049971    -233.3788  -0.89447619    -19.33658    2.3440294   -0.9386874   -9.1141543   -233.39367  -0.86005825   -9.3430437    198.35183  -0.82086569   -20.054551  -0.88338283   -0.9079591   -469.89882 
    8300    472.02597   -231.84377   -211.96203   -249.38471    303.88214    2.3745029   -1.0750483   -19.068403   -233.37277   -0.8956087   -19.343006    2.3678037  -0.92862339   -9.1483216   -233.40108  -0.87454485   -9.3668381    198.36191  -0.82596587   -20.072083  -0.88262892   -0.9079154   -469.89847 
    8400    472.02597   -179.32442   -175.99178   -219.30694    303.60687    2.3464242   -1.0887262   -19.066097   -233.38788  -0.88525481   -19.350616    2.3685768  -0.95320348   -9.1500651   -233.41738  -0.90090222   -9.3798991    198.35922  -0.84582618   -20.100937    -0.881875  -0.90787171   -469.89811 
    8500    472.02597   -132.99653   -131.21693   -199.12137    303.33009    2.3492637   -1.0696856   -19.057565   -233.38413  -0.86254727   -19.341296    2.3328868  -0.92196066   -9.1457229     -233.397  -0.88383376   -9.3687265     198.3339  -0.84689108   -20.086795  -0.88112109  -0.90782801   -469.89775 
    8600    472.02597   -177.82743   -101.13842   -148.78391    303.68365    2.3421084   -1.0658086   -19.063909     -233.399  -0.83983761   -19.371047    2.3100899  -0.90998311   -9.1941227   -233.42081  -0.87174649   -9.3835975    198.33576  -0.84709991   -20.074994  -0.88036718  -0.90778432   -469.89739 
    8700    472.02597   -127.07967    -101.3035   -131.71186    303.52205    2.3283713   -1.0553284       -19.09   -233.39279  -0.80792266   -19.395693    2.2990889  -0.90189898   -9.2087751   -233.40544  -0.82370948   -9.3887431     198.3454  -0.86391805   -20.059747  -0.87961326  -0.90774062   -469.89703 
    8800    472.02597   -131.47219   -117.85852   -122.53999    303.46452    2.3083463   -1.0398837    -19.14843   -233.38706  -0.79824522   -19.418688    2.2678586  -0.86548718   -9.2626387   -233.37965  -0.80923879   -9.4203336    198.32297   -0.9109997   -20.040918  -0.87885935  -0.90769693   -469.89667 
    8900    472.02597   -119.68063   -109.51661    -155.1531    303.58414    2.3070037   -1.0171618   -19.174202   -233.38265  -0.77868049   -19.437835    2.2553052   -0.8331731   -9.3011843   -233.34918  -0.77288255   -9.4415896    198.31795  -0.90591856   -20.066155  -0.87810543  -0.90765323   -469.89631 
    9000    472.02597   -101.34725   -111.97286   -117.15042    303.39567    2.3046613   -1.0152828   -19.166503   -233.36943  -0.79577562   -19.426495    2.2522812  -0.83244887   -9.2915216   -233.32627  -0.75891451     -9.41294    198.32259  -0.93580366   -20.051864  -0.87735152  -0.90760954   -469.89595 
    9100    472.02597   -116.01374   -106.91063    -100.5498     303.8005    2.2783424   -1.0298912   -19.173521   -233.34468  -0.80779239   -19.423397    2.2248688  -0.85119721   -9.2816073   -233.31209  -0.77723879   -9.4272966    198.32747  -0.93097159   -20.056726   -0.8765976  -0.90756584   -469.89559 
    9200    472.02597   -91.444095   -93.617494   -135.78878    303.59219    2.2734518   -1.0088988   -19.157481   -233.36385  -0.84024157   -19.392218    2.2231876  -0.83936022   -9.2477794   -233.32824  -0.80303295   -9.3842751     198.3342  -0.96316113   -20.064506  -0.87584369  -0.90752214   -469.89524 
    9300    472.02597     -97.8585   -95.480938   -137.38871     303.7026    2.2439474   -1.0223861   -19.161926   -233.34699  -0.84405297    -19.41931    2.2077124  -0.88853203   -9.2698108   -233.32168  -0.82103787   -9.4358141    198.37075  -0.96069905   -20.094892  -0.87508978  -0.90747845   -469.89488 
    9400    472.02597    -69.27658   -69.729667   -114.19239    303.51936    2.2470409     -1.06133   -19.154328   -233.34226  -0.87883871   -19.422341    2.1921591  -0.90184056   -9.2414673   -233.32574  -0.86739053   -9.4321277    198.38525  -0.93607505   -20.112714  -0.87433586  -0.90743475   -469.89452 
    9500    472.02597   -28.294078   -31.855117   -60.057696    303.47402    2.2463425   -1.0856195   -19.144993   -233.33565  -0.87700852   -19.426953    2.1966074   -0.9181322   -9.2034583    -233.3139  -0.88460339   -9.4437901    198.40435   -0.9147995   -20.156754  -0.87358195  -0.90739106   -469.89416 
    9600    472.02597   -6.8430856   -22.150271    8.9755667    303.47284    2.2484167   -1.0649405   -19.149571   -233.31258  -0.88531375   -19.448221    2.2156499   -0.8749203   -9.2030039   -233.28936  -0.90156869    -9.457516    198.38985  -0.90734096    -20.19119  -0.87282803  -0.90734736    -469.8938 
    9700    472.02597   -6.6291508   -14.736966   -32.495334    303.92708     2.244689   -1.0683214    -19.17792   -233.30601  -0.90733819   -19.450361    2.2096772  -0.89202123    -9.257771   -233.31263  -0.95622187   -9.4674663    198.38594  -0.91965346     -20.1934  -0.87207412  -0.90730367   -469.89344 
    9800    472.02597   -9.9693699   -6.5599199    18.800386    303.72338     2.259549   -1.0645144   -19.183202   -233.31796   -0.9517438   -19.461163    2.2356435  -0.91178125     -9.25194    -233.3181   -1.0032781   -9.4813063    198.39439  -0.93721528   -20.196902  -0.87132021  -0.90725997   -469.89308 
    9900    472.02597    21.849943    30.445283    25.877717    303.66824    2.2579875   -1.0853417   -19.185452   -233.30427  -0.98281577   -19.471252    2.2335116  -0.92987988   -9.2928104   -233.30827   -1.0211319   -9.4553222    198.41182  -0.95461146    -20.19115  -0.87056629  -0.90721628   -469.89272 
   10000    472.02597    45.229942    41.256383    51.410481     303.6401    2.2775087   -1.0503439   -19.193159   -233.27372    -1.001348   -19.484364     2.232375  -0.88846005   -9.3111901   -233.27684   -1.0169022   -9.4813683    198.42034  -0.95629954   -20.186986  -0.86981238  -0.90717258   -469.89236 
   10100    472.02597    52.479922     63.05951    75.692472    303.67135    2.2647336   -1.0833927   -19.201924   -233.27708  -0.99084871   -19.475685    2.2423237  -0.92072698   -9.3318763   -233.28762  -0.99206934   -9.4699067    198.44519  -0.97682901   -20.185586  -0.86905846  -0.90712888   -469.89201 
   10200    472.02597    56.016314    40.056549    72.322141    303.62796     2.265797   -1.0848958    -19.23051   -233.26137   -0.9621015   -19.503276     2.259396  -0.95170304   -9.3439458   -233.24977  -0.95178429   -9.4846453    198.43357  -0.98958076   -20.189784  -0.86830455  -0.90708519   -469.89165 
   10300    472.02597    72.093624    36.445719    59.498361    303.92452    2.2615978   -1.0676664   -19.224589   -233.26525  -0.94451132   -19.537121    2.2680043  -0.94220118   -9.3487572   -233.24199  -0.93709756   -9.5373634    198.39506  -0.99692517   -20.215591  -0.86755064  -0.90704149   -469.89129 
   10400    472.02597    48.804665    54.166697     98.95051     303.7791    2.2492513   -1.0891512   -19.241626   -233.25612  -0.92023877   -19.560626    2.2479694  -0.93515434   -9.3388453   -233.22372  -0.91263843   -9.5524498    198.40829   -1.0024576   -20.209971  -0.86679672   -0.9069978   -469.89093 
   10500    472.02597    90.974684     60.82489    114.56532    303.76239    2.2683323   -1.1052927   -19.228331   -233.22907  -0.91096588   -19.555089    2.2666469  -0.94718892   -9.3181435   -233.21885  -0.87019617    -9.561156    198.44353   -1.0088226   -20.209928  -0.86604281   -0.9069541   -469.89057 
   10600    472.02597    90.549001    82.816609    122.59144    303.64835    2.2685818   -1.1092319   -19.212728   -233.21303  -0.91043161   -19.564291    2.2703421  -0.96234324   -9.2856381   -233.17732   -0.8823421   -9.5785668    198.44385   -1.0178507   -20.211047  -0.86528889  -0.90691041   -469.89021 
   10700    472.02597    86.575364    94.983325      107.728    303.90311    2.2793486    -1.107783   -19.254768   -233.24905  -0.92412297   -19.568989     2.273925  -0.93127717   -9.3490508   -233.22434  -0.90374772   -9.5862767    198.45284   -1.0217761   -20.215295  -0.86453498  -0.90686671   -469.88985 
   10800    472.02597    93.961459    80.343153    115.76437    303.69374    2.2873584   -1.1308417    -19.27793   -233.25352  -0.90158556   -19.557722    2.2637435  -0.95764761   -9.3638942   -233.24259  -0.89482868   -9.5963825    198.44133   -1.0166995    -20.19551  -0.86378106  -0.90682302   -469.88949 
   10900    472.02597    97.967596    76.653149    120.85413    303.65364    2.2815036   -1.1262663   -19.290258   -233.26329  -0.94234436   -19.535955    2.2283498   -0.9424388   -9.3623385   -233.25169  -0.97106363   -9.5564409    198.45283  -0.96869252   -20.175965  -0.86302715  -0.90677932   -469.88914 
   11000    472.02597    92.185639    50.386585    119.31235     303.6795    2.2631799   -1.1065319   -19.303556   -233.27805  -0.95803442   -19.521701    2.2329636  -0.91596692   -9.3731455   -233.29146     -0.96617   -9.5280117    198.46811  -0.95242027   -20.175565  -0.86227324  -0.90673562   -469.88878 
   11100    472.02597    77.659036    59.089968     119.3935     304.0645    2.2700636   -1.0947363   -19.295291   -233.28148  -0.93288012   -19.515729    2.2277042  -0.92814115   -9.3721401   -233.31011  -0.93911118   -9.4995187    198.45463  -0.92355493   -20.181579  -0.86151932  -0.90669193   -469.88842 
   11200    472.02597    103.12295    89.084777    145.55562     303.7173    2.3101421     -1.07316   -19.307006   -233.29644  -0.90971008   -19.502053    2.2659322  -0.91421305   -9.3874124   -233.33212  -0.93164556   -9.4880848    198.45243  -0.94214758   -20.190425  -0.86076541  -0.90664823   -469.88806 
   11300    472.02597    94.896654    79.219051    145.45133    303.87832    2.3127862   -1.0661859   -19.297903    -233.3082  -0.88747566   -19.493742    2.2630541  -0.91748431   -9.3862729   -233.35618  -0.92819855   -9.4911858    198.45838  -0.92136002   -20.234211  -0.86001149  -0.90660454    -469.8877 
   11400    472.02597    116.14502    122.60069    171.10793    303.42517    2.3068583   -1.0971109    -19.27287   -233.31064  -0.88947337   -19.473339    2.2741175  -0.97715629   -9.3780172   -233.33063  -0.89886972   -9.4494778    198.45696   -0.9090748   -20.249859  -0.85925758  -0.90656084   -469.88734 
   11500    472.02597    119.95902     106.6969    148.73841    303.85651    2.2956123   -1.1273616   -19.271344   -233.29201  -0.92905238     -19.4614    2.2803057  -0.98247323   -9.3741828   -233.31364  -0.90488309   -9.4319428    198.41062  -0.92239388   -20.238921  -0.85850367  -0.90651715   -469.88698 
   11600    472.02597    124.28194    111.39764      193.138    303.85253     2.309376   -1.1591774   -19.312011   -233.26712  -0.89804665   -19.440249    2.2676303   -1.0101751   -9.4203163   -233.28327  -0.88212826   -9.4248396      198.409  -0.92004089   -20.277846  -0.85774975  -0.90647345   -469.88662 
   11700    472.02597    178.35168    194.46228    222.29327    303.18449    2.3096811    -1.146202   -19.324948   -233.25676  -0.88126887   -19.464046    2.2796216  -0.96731804    -9.425756   -233.26818  -0.86189206   -9.4811253    198.39047  -0.93563338   -20.300874  -0.85699584  -0.90642975   -469.88626 
   11800    472.02597     170.6652    167.21278    222.43986     303.6099    2.3187248   -1.1519477   -19.327072   -233.25634  -0.89595913   -19.457659     2.284374  -0.97445335   -9.4013172   -233.24504  -0.90504611   -9.4803105    198.37921  -0.93579936   -20.293946  -0.85624192  -0.90638606   -469.88591 
   11900    472.02597    191.77829    161.83238    263.16979    303.86755    2.3011301   -1.1712523   -19.319659   -233.23937  -0.88903438   -19.453829    2.2518382   -1.0009452   -9.3829729   -233.22778  -0.89019888   -9.4698209    198.38564  -0.91571195   -20.292063  -0.85548801  -0.90634236   -469.88555 
   12000    472.02597    217.88676    216.18568    274.42389    303.59068    2.2787376   -1.1555093   -19.329394   -233.24825   -0.8657585   -19.479373    2.2233642  -0.97443177   -9.3934006   -233.26253  -0.89087025   -9.4890344    198.42305  -0.90795376   -20.292742   -0.8547341  -0.90629867   -469.88519 
   12100    472.02597    250.40623    231.95539    291.44496    303.58203    2.2906083     -1.19021   -19.347649    -233.2385  -0.84547495   -19.491029    2.2416842    -1.002353   -9.4376353   -233.25032  -0.83623084    -9.512096    198.42604  -0.91482511   -20.276285  -0.85398018  -0.90625497   -469.88483 
   12200    472.02597    261.59618    264.12072    346.00686     303.3957    2.3190132   -1.2074763      -19.344   -233.26269  -0.86403029   -19.455705    2.2728732   -1.0409459   -9.4368841   -233.27223  -0.86920125   -9.4874168    198.43761  -0.91643767   -20.230657  -0.85322627  -0.90621128   -469.88447 
   12300    472.02597    258.13847    217.53831    364.41993     303.6469    2.3303867   -1.2113088   -19.344941   -233.27135   -0.8755627   -19.448391    2.3027425   -1.0713694   -9.4488263   -233.26394  -0.86948359   -9.4643815     198.4175  -0.90142579   -20.225439  -0.85247235  -0.90616758   -469.88411 
   12400    472.02597     287.6019    254.23641    358.10245    303.98332    2.3221208   -1.2243385   -19.373581    -233.2861   -0.9026184    -19.44414    2.3027585   -1.0723808   -9.4902005   -233.29176  -0.90913613   -9.4589759    198.42785  -0.89299232   -20.201137  -0.85171844  -0.90612389   -469.88375 
   12500    472.02597    250.63913     278.4302    414.40089     303.8551    2.2993131    -1.207385   -19.399481   -233.29252  -0.90688836   -19.465534    2.2716235   -1.0396111   -9.5218337    -233.3087  -0.89922829   -9.4625637    198.43003  -0.91486564   -20.194501  -0.85096452  -0.90608019   -469.88339 
   12600    472.02597    296.84449    303.13906    409.13829    303.61206    2.3304515    -1.194588   -19.397406   -233.30254  -0.91054771   -19.464024    2.3132288   -1.0126725   -9.5247034   -233.29627  -0.88462822   -9.4601435    198.42047  -0.92664951   -20.210738  -0.85021061  -0.90603649   -469.88303 
   12700    472.02597    294.35939    314.27375    429.05861    303.50571    2.3477313   -1.1819218   -19.442658    -233.3196  -0.90076349   -19.442732    2.3428401   -1.0103119   -9.5657126   -233.33219   -0.8768223   -9.4532797    198.41591  -0.92465446    -20.20899   -0.8494567   -0.9059928   -469.88268 
   12800    472.02597    286.33349    285.03674    404.64453    303.87505    2.3422246   -1.1587766   -19.444944   -233.32388  -0.90475373   -19.454288    2.3282277  -0.99618334   -9.5645902   -233.33552  -0.90608557    -9.465842    198.43796   -0.9271878   -20.195436  -0.84870278   -0.9059491   -469.88232 
   12900    472.02597    323.02821    306.50293    440.50542    303.49119    2.3432962   -1.1388785   -19.446417   -233.30758  -0.89362173   -19.419771    2.3269087  -0.96488789    -9.545027   -233.30637  -0.90984042   -9.3988614    198.44276  -0.92769969   -20.193183  -0.84794887  -0.90590541   -469.88196 
   13000    472.02597    314.30956    311.49569    417.99297    303.59328    2.3274484   -1.1527585   -19.460253   -233.28867  -0.86462363   -19.389487    2.3040342  -0.97779599    -9.575412   -233.28731   -0.8771419   -9.3668827    198.44119   -0.9356215   -20.162402  -0.84719495  -0.90586171    -469.8816 
   13100    472.02597    303.37378    285.49678     410.9152     303.6848    2.3235528   -1.1683194   -19.467612   -233.30456  -0.87268427   -19.407784    2.3043643   -1.0112279   -9.5916728    -233.2837  -0.87481127   -9.4294754    198.45113  -0.92135528    -20.16704  -0.84644104  -0.90581802   -469.88124 
   13200    472.02597    265.81331    281.87026    409.36887    303.81354    2.3303863   -1.1618199    -19.44477    -233.2871   -0.8866675   -19.398069    2.3036955   -1.0213221   -9.5812955   -233.28302  -0.89734753   -9.4109644    198.43462  -0.91405213   -20.158197  -0.84568713  -0.90577432   -469.88088 
   13300    472.02597    281.10026    281.71913    405.59909    304.03136    2.3209475   -1.2110943   -19.473162   -233.28124  -0.92873493   -19.399975    2.2851707   -1.0825842   -9.6112123   -233.26729  -0.94144704   -9.4004455    198.42168  -0.91151347   -20.146562  -0.84493321  -0.90573063   -469.88052 
   13400    472.02597    272.61391    281.09679    378.51215    303.86778    2.3326997   -1.2238852   -19.460964    -233.2966  -0.93032602   -19.401701    2.3080092   -1.0867672   -9.5759882   -233.27183  -0.92422566   -9.3851447    198.42104  -0.90328255    -20.15481   -0.8441793  -0.90568693   -469.88016 
   13500    472.02597     286.8928    257.30181    423.11968    303.92197    2.3539885   -1.2212237   -19.424161   -233.30423  -0.94029268   -19.362702    2.3244675   -1.0793682   -9.5424054   -233.28086  -0.93700517   -9.3366024    198.40847  -0.90441366    -20.14537  -0.84342538  -0.90564323   -469.87981 
   13600    472.02597    289.12805    281.88754    403.62405    303.65001    2.3409081    -1.237205   -19.431525   -233.28226  -0.97230933   -19.372257    2.3218662   -1.1090886   -9.5452403    -233.2697  -0.96198535    -9.343442    198.37613  -0.92098185   -20.140647  -0.84267147  -0.90559954   -469.87945 
   13700    472.02597    285.41359    249.45367    380.05226    303.93727     2.340299   -1.2418663   -19.436667   -233.28938  -0.96246673   -19.356389    2.3350451   -1.0733985   -9.5765704    -233.2804   -0.9754272   -9.3510724    198.37832   -0.9238417   -20.148065  -0.84191755  -0.90555584   -469.87909 
   13800    472.02597    239.37988     277.5831    340.79361    304.15495    2.3533134   -1.2439828    -19.46678   -233.29488  -0.94742392   -19.389879    2.3509629   -1.0576224   -9.5538959   -233.29673  -0.96083944   -9.3837978    198.35711   -0.9247678   -20.180139  -0.84116364  -0.90551215   -469.87873 
   13900    472.02597    255.05901    286.45045    412.68053    303.81138    2.3381538   -1.2352115   -19.452232   -233.29317   -0.9516446   -19.367668    2.3424582   -1.0465127   -9.5493721   -233.29071  -0.96088466   -9.3844214     198.3523  -0.95272334   -20.164584  -0.84040973  -0.90546845   -469.87837 
   14000    472.02597    284.66359    272.84969    425.14722    303.81942    2.3317582   -1.2552938   -19.471159   -233.31277  -0.94863697    -19.36889    2.3462959   -1.0953092   -9.5588918   -233.30631  -0.94960891   -9.3820502    198.37179  -0.97969033   -20.173761  -0.83965581  -0.90542476   -469.87801 
   14100    472.02597     260.8983    283.12225    392.10531    303.93262    2.3521454   -1.2310138   -19.484477   -233.31159  -0.93088878   -19.398084     2.355009   -1.0672823   -9.5861787   -233.30618   -0.9352669   -9.3806767    198.35326  -0.98588029   -20.197417   -0.8389019  -0.90538106   -469.87765 
   14200    472.02597      254.073    292.24606    366.23764    304.00451    2.3186253   -1.2388551   -19.491741   -233.32024  -0.92883001   -19.416411    2.3218739   -1.0852261   -9.5871212   -233.32783  -0.92032612   -9.4079907    198.35319  -0.98376649   -20.184065  -0.83814798  -0.90533737   -469.87729 
   14300    472.02597    275.27991    250.50548    383.08464    304.17043    2.3155302   -1.2416636   -19.477941   -233.29902  -0.90714288   -19.401591     2.289606   -1.0799598   -9.6219356   -233.32136   -0.9106858    -9.409717    198.33967   -1.0048854   -20.146923  -0.83739407  -0.90529367   -469.87693 
   14400    472.02597    279.42646    290.38596    393.45188    303.98406    2.3371706   -1.2013585   -19.472071   -233.31069  -0.90938506   -19.409507    2.3174617   -1.0375025   -9.6104789   -233.34186  -0.91340919   -9.4218044    198.33073  -0.99524077   -20.129437  -0.83664016  -0.90524997   -469.87658 
   14500    472.02597    303.30492    334.07342    424.33389    303.93306    2.3206007    -1.185292   -19.465817   -233.30504  -0.91613409   -19.434745    2.2876003    -1.025163   -9.6234206   -233.33469  -0.91384606   -9.4456128    198.33715  -0.98225176   -20.101519  -0.83588624  -0.90520628   -469.87622 
   14600    472.02597    334.00587    351.12131    457.65668    303.81453    2.3476501   -1.1754931   -19.458267   -233.30985  -0.90959463   -19.451299    2.3308946    -1.004234   -9.6053054   -233.33076  -0.92121556   -9.4802918    198.33229  -0.99992599   -20.097695  -0.83513233  -0.90516258   -469.87586 
   14700    472.02597    338.19971    320.02481    457.79465    304.12701    2.3468571     -1.18968   -19.469293    -233.2947  -0.93656579   -19.461787    2.3246483   -1.0386879   -9.5940516    -233.3057  -0.96515982   -9.5071513    198.31516  -0.97265749   -20.127548  -0.83437841  -0.90511889    -469.8755 
   14800    472.02597    314.86378    351.13311    482.14656    303.90937    2.3323577   -1.1956071   -19.482085   -233.29084  -0.90881709   -19.451759    2.3167152   -1.0327539   -9.5956693   -233.30093  -0.91849211   -9.4880968    198.33657  -0.94222942   -20.154593   -0.8336245  -0.90507519   -469.87514 
   14900    472.02597    362.25516    352.47738    486.50407    303.95706    2.3878558   -1.2014012   -19.492608   -233.27076  -0.91751527   -19.450703    2.3714224   -1.0238788   -9.5944304   -233.28278  -0.88890754   -9.5048626    198.35288  -0.96760883   -20.140844  -0.83287059   -0.9050315   -469.87478 
   15000    472.02597    345.97118     350.3209    498.76721    303.52111    2.3931467   -1.2204534   -19.491287   -233.25729  -0.92914147   -19.450023    2.3872222   -1.0473418    -9.588109   -233.25589  -0.93581475   -9.4981737    198.35427  -0.98401691   -20.135099  -0.83211667   -0.9049878   -469.87442 
   15100    472.02597    330.82023     319.6314     442.9534    303.91183    2.3920427   -1.2196298   -19.476282   -233.25906  -0.92867825   -19.425245    2.3797719   -1.0499845   -9.5410606   -233.24196  -0.91077201    -9.442036    198.35099  -0.96331571   -20.136591  -0.83136276  -0.90494411   -469.87406 
   15200    472.02597    315.64397    316.71545    429.08714    303.97424    2.4123822   -1.2089744   -19.473193   -233.26962  -0.91834609   -19.422009     2.397336   -1.0279782   -9.5443181   -233.23994  -0.91056399   -9.4562449    198.33984  -0.97420528   -20.125015  -0.83060884  -0.90490041   -469.87371 
   15300    472.02597    327.56966    336.67825    414.32198    303.78056    2.4168244   -1.1573216   -19.477587   -233.28263  -0.90739302   -19.389466    2.3880047   -0.9955962   -9.5559608    -233.2582  -0.88785594   -9.4123875    198.36271  -0.99131476   -20.145582  -0.82985493  -0.90485671   -469.87335 
   15400    472.02597    322.12518    337.49688    394.96179     303.3451    2.4141034   -1.1377111   -19.466043   -233.30326  -0.88442172   -19.356705    2.4034556  -0.97231848   -9.5453712   -233.28104  -0.87529912   -9.3728271    198.37026   -1.0070406   -20.155458  -0.82910101  -0.90481302   -469.87299 
   15500    472.02597    313.70812    317.81282     426.9367    303.75559    2.3996402   -1.1447623   -19.463207   -233.30439   -0.8822318   -19.361142    2.3853894  -0.96897033   -9.5710938   -233.29324  -0.87641039   -9.3624835    198.37448  -0.99386745   -20.144255   -0.8283471  -0.90476932   -469.87263 
   15600    472.02597    290.47212     312.1769    430.89732    303.60508    2.4150494    -1.159768   -19.469965   -233.30434  -0.89136922   -19.373634    2.3887405  -0.99371898   -9.5746578   -233.29761    -0.904368   -9.3793451    198.41774   -1.0005529   -20.125551  -0.82759319  -0.90472563   -469.87227 
   15700    472.02597    294.41317     249.4949    364.78103    304.17393    2.4033409   -1.1543179   -19.476714    -233.3014  -0.92048729   -19.335932    2.3934719  -0.99142568   -9.5688559   -233.31149  -0.91642934   -9.3212076    198.43913   -1.0025313   -20.138872  -0.82683927  -0.90468193   -469.87191 
   15800    472.02597     276.5165    258.67601    390.61197    304.04678    2.3908316   -1.1608461   -19.491567   -233.31161  -0.91819269    -19.35562    2.3709965   -1.0385307    -9.561104   -233.33327  -0.90432416   -9.2984642    198.44503  -0.99342697   -20.149936  -0.82608536  -0.90463824   -469.87155 
   15900    472.02597    290.60202    299.12998    404.93191    303.68487    2.3796083   -1.1736904   -19.487293   -233.32468  -0.96413663   -19.365578    2.3518138   -1.0243735   -9.5675793    -233.3551  -0.95402513   -9.3357056    198.44057  -0.99283749    -20.15631  -0.82533144  -0.90459454   -469.87119 
   16000    472.02597    296.20693    275.62476    421.11508    303.73731    2.3640891   -1.2058437   -19.491898   -233.32087  -0.95027356   -19.383107    2.3260521    -1.051524   -9.5877428   -233.35192  -0.96227395   -9.3611808    198.46507  -0.99656032   -20.171783  -0.82457753  -0.90455084   -469.87083 
   16100    472.02597    317.38526    305.92644    404.72643    303.61463    2.3475122   -1.1819868   -19.494538   -233.31097  -0.96692189   -19.398266    2.2986155   -1.0255512   -9.5956605    -233.3361  -0.98757454   -9.3754306    198.45501  -0.98054159   -20.177655  -0.82382362  -0.90450715   -469.87048 
   16200    472.02597    310.86504    319.26147    434.22726    303.73958    2.3516154   -1.1852226   -19.479361   -233.28599  -0.97420453   -19.392738       2.3098   -1.0018368   -9.5895668   -233.29176   -0.9885506   -9.3571592    198.44773  -0.98031001   -20.197565   -0.8230697  -0.90446345   -469.87012 
   16300    472.02597    311.57768    297.70231     399.9995    303.99602    2.3838352   -1.1701355    -19.47427   -233.27825  -0.97936334   -19.414281    2.3457934   -0.9848723   -9.5844319   -233.28974  -0.99994855   -9.4220606     198.4697  -0.97385251   -20.230887  -0.82231579  -0.90441976   -469.86976 
   16400    472.02597    306.01336    320.70591    411.74108    303.92522    2.4135523   -1.1936929   -19.469706   -233.26933  -0.97581817   -19.407639    2.4035928   -1.0065454   -9.6068214   -233.26698  -0.98292848   -9.4092792    198.46971  -0.99288609     -20.2352  -0.82156187  -0.90437606    -469.8694 
   16500    472.02597     313.5304    314.02429      442.915    303.63969     2.408299   -1.1940648   -19.453589   -233.25196   -0.9873603   -19.390869    2.3836445   -1.0305707   -9.5832032   -233.26669  -0.98111913    -9.383333     198.4588  -0.98067848   -20.230714  -0.82080796  -0.90433237   -469.86904 
   16600    472.02597    293.74626    313.53806     414.6531     303.7687    2.4150113   -1.1631567   -19.440435   -233.23514  -0.99065064   -19.427394     2.398647   -1.0238568   -9.5608618   -233.23719  -0.97576083   -9.4145471    198.44368   -1.0008388   -20.248475  -0.82005405  -0.90428867   -469.86868 
   16700    472.02597    284.68872    312.25385    411.67118    303.93584     2.448118   -1.1656518   -19.427662   -233.25867  -0.99069888   -19.440743    2.4247714   -1.0157572   -9.5581796   -233.25053   -1.0050364   -9.4273754    198.45442   -1.0058587   -20.255143  -0.81930013  -0.90424498   -469.86832 
   16800    472.02597    299.39429    307.98389    408.93006    303.64203    2.4636074   -1.1682606   -19.432866    -233.2326  -0.99226616   -19.468222    2.4692362   -1.0106527   -9.5541423   -233.22517  -0.98421182   -9.4762564    198.46066   -1.0088036   -20.258041  -0.81854622  -0.90420128   -469.86796 
   16900    472.02597    289.39614    248.23948    360.40112    303.90717    2.4674379   -1.1619281   -19.435216    -233.2162  -0.97823725   -19.505945     2.477581   -0.9998001   -9.5504012   -233.20492  -0.98232015   -9.5046595    198.46953   -1.0060947    -20.25781   -0.8177923  -0.90415758    -469.8676 
   17000    472.02597    253.33394    267.91701    356.08096    303.60717    2.4696574   -1.1748099   -19.430015   -233.19276  -0.94501887   -19.515472    2.4537795    -1.016709    -9.564507   -233.20002  -0.94119997   -9.5371504    198.47527   -1.0227111   -20.275803  -0.81703839  -0.90411389   -469.86725 
   17100    472.02597    228.48043    248.96041    346.35694     303.5096     2.488688   -1.1591019   -19.408473   -233.19925   -0.9611551    -19.52702    2.4691481  -0.97752467   -9.5328819   -233.21028  -0.96231083   -9.5730815    198.47564   -1.0202447   -20.252779  -0.81628447  -0.90407019   -469.86689 
   17200    472.02597    230.06189    239.88068    333.40197    303.53737       2.4863    -1.144038   -19.388223   -233.18278  -0.98412336   -19.542124    2.4388833  -0.97672947   -9.5164128   -233.19484   -1.0123973   -9.5716608    198.45787   -1.0099592   -20.239424  -0.81553056   -0.9040265   -469.86653 
   17300    472.02597    238.64892    250.58345    310.15453    303.78929    2.5010617   -1.1755125   -19.371145   -233.19602   -0.9631423    -19.55272    2.4547177   -1.0280913   -9.4819842   -233.21014  -0.95673781   -9.5895356    198.46136   -1.0358719    -20.24666  -0.81477665   -0.9039828   -469.86617 
   17400    472.02597     222.4836    220.57124    315.78756    303.95238    2.4839289    -1.186425   -19.345399    -233.1924  -0.97799905   -19.523776    2.4372698   -1.0235928   -9.4558452   -233.19453  -0.97959493   -9.5404148    198.48863   -1.0174913   -20.249349  -0.81402273  -0.90393911   -469.86581 
   17500    472.02597    222.64087    220.02449    320.61625    303.83939    2.5067432   -1.1999367   -19.361538   -233.20182  -0.97458998   -19.537968    2.4559061   -1.0340823   -9.4498454   -233.19558  -0.97399889   -9.5705698    198.48913   -1.0249164   -20.246636  -0.81326882  -0.90389541   -469.86545 
   17600    472.02597    225.33328    217.77984     300.9228      303.722    2.5128198   -1.1748825     -19.3661   -233.19639  -0.95779462   -19.562341       2.4772   -1.0206318   -9.4563594   -233.20382  -0.93308095   -9.5928111    198.50027   -1.0190861   -20.255741   -0.8125149  -0.90385172   -469.86509 
   17700    472.02597    202.94647    224.71239    287.39896    303.60992     2.493916   -1.1812637   -19.348386   -233.19482  -0.96423941   -19.568086    2.4791064   -1.0277713   -9.4726131   -233.19546  -0.94618938   -9.5693201    198.49866  -0.99056177   -20.254572  -0.81176099  -0.90380802   -469.86473 
   17800    472.02597    230.11716    218.77377    297.35862    303.36189    2.5119777   -1.1867185   -19.341003   -233.20764  -0.95649827   -19.568282    2.5014893   -1.0193079   -9.4664726   -233.22121  -0.96198282   -9.5599487    198.48532  -0.98696495   -20.257308  -0.81100708  -0.90376432   -469.86438 
   17900    472.02597    202.16578    227.46715    293.89094    303.79644    2.5104635   -1.1679199   -19.316064   -233.20849  -0.94291149   -19.533705    2.4880469  -0.98936473    -9.440067    -233.2385  -0.95345616   -9.5202076    198.47629  -0.99392996   -20.276897  -0.81025316  -0.90372063   -469.86402 
   18000    472.02597    228.53715    209.46144    313.09644    303.68681    2.5202684   -1.1563446   -19.342608    -233.1935  -0.96111164   -19.508645    2.5159074  -0.96804516   -9.4668163   -233.23155  -0.96937959   -9.4804036    198.47803  -0.98051152   -20.293543  -0.80949925  -0.90367693   -469.86366 
   18100    472.02597    209.02061    212.69833    284.70215    303.89833     2.521237   -1.1544891   -19.322629   -233.18348  -0.98223046   -19.482369    2.5247304  -0.97918472   -9.4396142   -233.22673  -0.97009797   -9.4756449    198.50113  -0.98336479   -20.262147  -0.80874533  -0.90363324    -469.8633 
   18200    472.02597    222.68121     200.9533    316.04366    303.73558    2.5111626   -1.1280108    -19.30891   -233.18864  -0.97874747   -19.468625    2.5106292  -0.96038497   -9.4411573    -233.2208  -0.97125332   -9.4605494    198.50133   -1.0161529   -20.247501  -0.80799142  -0.90358954   -469.86294 
   18300    472.02597    193.18165    235.24442    297.71737    303.65136    2.4895574   -1.1158998   -19.298745   -233.17995  -0.99025957   -19.454936    2.4703416  -0.96935902   -9.4315047   -233.19473  -0.99178818    -9.462129     198.5231   -1.0185671   -20.241613  -0.80723751  -0.90354585   -469.86258 
   18400    472.02597    196.12162    217.59836    294.99023     303.7854    2.5115056   -1.1132226   -19.278704   -233.19347  -0.94768427   -19.465659    2.4982901  -0.95861943   -9.4007476   -233.20728  -0.96976698   -9.4940475    198.54201   -1.0195818   -20.233437  -0.80648359  -0.90350215   -469.86222 
   18500    472.02597    207.85386    201.29106    260.58592    303.73319    2.4910153    -1.126614   -19.284916   -233.19036  -0.94455281   -19.463081    2.4914668  -0.97677722   -9.4089906   -233.19459   -0.9733223   -9.4910301    198.55803   -1.0187634   -20.238771  -0.80572968  -0.90345846   -469.86186 
   18600    472.02597    170.01343    200.71487     267.3275    303.88282    2.4849255   -1.1240008   -19.260765   -233.20297  -0.94291928   -19.469179    2.4590942  -0.95364442   -9.3601971   -233.20526  -0.94719574   -9.4747368    198.53814   -1.0106504   -20.243944  -0.80497576  -0.90341476    -469.8615 
   18700    472.02597    195.18656    199.30462    251.10974      303.807    2.4764846   -1.1454227   -19.230942   -233.18899   -0.9215271   -19.462234    2.4506111  -0.96957694   -9.3513717   -233.19866  -0.92051526   -9.4614586    198.53501   -0.9944459   -20.238045  -0.80422185  -0.90337106   -469.86115 
   18800    472.02597    207.60282    219.34478    289.73282    303.70295    2.4652041   -1.1513303   -19.236228    -233.1831  -0.91702148   -19.427829    2.4307957  -0.96984611   -9.3510687   -233.19087  -0.90275413   -9.4356395    198.55228  -0.99944933   -20.197906  -0.80346793  -0.90332737   -469.86079 
   18900    472.02597    174.04003     196.0713    300.20668    303.94966    2.4732188   -1.1517506   -19.241189   -233.17649  -0.93960397   -19.421645    2.4387896  -0.96129161   -9.3604933   -233.17269  -0.92225447   -9.4213838    198.57368   -1.0009299   -20.159231  -0.80271402  -0.90328367   -469.86043 
   19000    472.02597    216.16044    218.54832    317.00656    303.54887    2.5020894   -1.1263548   -19.254789   -233.14973  -0.95470581   -19.390666    2.4624697  -0.96396404   -9.3696066   -233.14953  -0.96293618   -9.4181067    198.55981   -1.0118382   -20.135514  -0.80196011  -0.90323998   -469.86007 
   19100    472.02597    186.99924     181.5684    248.48126    303.91549    2.5076703   -1.1378246   -19.245769   -233.15141  -0.95303233   -19.398537    2.4591983  -0.98210291   -9.3526171   -233.14234  -0.97447787    -9.423532    198.55406   -1.0034871   -20.134326  -0.80120619  -0.90319628   -469.85971 
   19200    472.02597    162.65544    179.94727    204.06122    303.54311    2.5125347   -1.1324587   -19.244349   -233.14837  -0.95297214   -19.403434    2.4712883  -0.97175641    -9.374999   -233.14053  -0.96135447   -9.4022403    198.54415  -0.98692992   -20.117952  -0.80045228  -0.90315259   -469.85935 
   19300    472.02597    157.49123    143.42417    200.64263    303.50179     2.508565   -1.1349429   -19.245652    -233.1283   -0.9470039   -19.409215    2.4934144  -0.99658215   -9.3840817   -233.10228  -0.93808916   -9.4066829    198.53254  -0.98009764   -20.113767  -0.79969836  -0.90310889   -469.85899 
   19400    472.02597    121.05963    111.08633    163.47865    303.85298    2.5140592   -1.1592026   -19.236959   -233.11551  -0.91736192   -19.424488    2.5177179   -1.0087854    -9.377508   -233.10944  -0.90931635   -9.4056036    198.55195  -0.93872393   -20.117439  -0.79894445   -0.9030652   -469.85863 
   19500    472.02597    99.503029    118.31477     178.4112    303.68917    2.5131909   -1.1608398   -19.235058   -233.13447  -0.92215673   -19.391184     2.517462   -1.0028389   -9.3648815   -233.12923  -0.94382375   -9.3848543    198.56444  -0.91887915   -20.115234  -0.79819054   -0.9030215   -469.85827 
   19600    472.02597    112.86938    146.17122    158.25405     303.4193    2.5258324   -1.1509707   -19.250264   -233.13161  -0.90833283   -19.360558    2.5299009  -0.97989909   -9.3540642   -233.11261  -0.90954603   -9.3616292    198.56366  -0.94579864   -20.102415  -0.79743662   -0.9029778   -469.85792 
   19700    472.02597    98.808237    110.57143    153.46998    303.78922    2.5421205   -1.1696252   -19.246243    -233.1233   -0.9406236   -19.370093    2.5473784  -0.99848615   -9.3672678   -233.12101  -0.93139835    -9.381015    198.57047  -0.95609391   -20.119078  -0.79668271  -0.90293411   -469.85756 
   19800    472.02597    95.650774    105.88054    160.12064    303.57684    2.5600122   -1.2040426   -19.233848   -233.10695  -0.95520928   -19.347673    2.5637666   -1.0463633   -9.3550021   -233.09239  -0.94196832   -9.3461813    198.59479  -0.96597591   -20.104393  -0.79592879  -0.90289041    -469.8572 
   19900    472.02597    76.748605    88.323085    122.89061    303.78424    2.5306138   -1.2100372   -19.223789   -233.11084  -0.96093103   -19.348993    2.5204806    -1.059366   -9.3462216   -233.09556  -0.95010886   -9.3391745    198.57955  -0.95439697   -20.085699  -0.79517488  -0.90284672   -469.85684 
   20000    472.02597    68.394314    76.554106    92.405872    303.84558    2.5185715   -1.2073627   -19.200548   -233.12123  -0.96242569   -19.346145    2.5025011   -1.0785046   -9.3270605    -233.1202  -0.95751047   -9.3227888    198.58392  -0.93575392   -20.038687  -0.79442097  -0.90280302   -469.85648 
   20100    472.02597      90.4431    107.68653     126.9655    303.35063    2.5212355   -1.1966242   -19.205566   -233.12801  -0.94625717   -19.346471     2.516898   -1.0221902   -9.3326438   -233.10929  -0.92981646   -9.3477006    198.58098  -0.91160417   -20.037477  -0.79366705  -0.90275933   -469.85612 
   20200    472.02597    72.380448    59.289002    91.446675    303.63214    2.5285932   -1.1998729   -19.196532   -233.10461  -0.93374318   -19.350453    2.5180425   -1.0460332   -9.3230316   -233.09154  -0.92226646   -9.3661207    198.57106  -0.91205164   -20.047652  -0.79291314  -0.90271563   -469.85576 
   20300    472.02597    12.148778    46.058589    46.738121    303.66775    2.5252718   -1.2074104   -19.166635   -233.12889  -0.93465116   -19.346649    2.5029101   -1.0394138   -9.2842961   -233.11026  -0.94303079   -9.3482362    198.58761  -0.89908071   -20.031111  -0.79215922  -0.90267194    -469.8554 
   20400    472.02597    -19.23181    11.534797    6.3474119    303.83237    2.4950886   -1.1991444   -19.174934   -233.12251  -0.93616799   -19.383517    2.4705198   -1.0324682   -9.3085004   -233.10475    -0.964206   -9.3748477    198.58994   -0.9089018   -20.057314  -0.79140531  -0.90262824   -469.85505 
   20500    472.02597   -4.1523794    6.7933101   -12.923063     303.5229    2.5101137   -1.1861393   -19.198875   -233.10767  -0.93726947   -19.398985    2.4908036  -0.99849992   -9.3097133   -233.08069  -0.97407365   -9.3972239    198.59625  -0.93395115   -20.065873  -0.79065139  -0.90258454   -469.85469 
   20600    472.02597   -30.858147   -19.266419   -30.369297    303.76601    2.5161301   -1.1780753   -19.207402   -233.12266  -0.93058666    -19.38656    2.4853331  -0.98745082   -9.3289554   -233.10044  -0.94877995   -9.4062892    198.60698   -0.9238912   -20.055162  -0.78989748  -0.90254085   -469.85433 
   20700    472.02597   -42.407455   -32.764056    -26.74243    303.76651    2.5098792   -1.2016731   -19.227207   -233.10618   -0.9415462   -19.345195    2.4774275   -1.0316182   -9.3657585   -233.07125  -0.95198977    -9.388386    198.59414  -0.93891833   -20.053623  -0.78914357  -0.90249715   -469.85397 
   20800    472.02597   -58.783181   -50.640076   -69.151282    303.66367    2.4840552   -1.1923389   -19.234627   -233.10085  -0.88962604   -19.315499    2.4413679   -1.0266135   -9.3661323   -233.08232  -0.87831587   -9.3313393    198.58481   -0.9354876   -20.058919  -0.78838965  -0.90245346   -469.85361 
   20900    472.02597   -93.136852   -62.429021   -80.102855    303.87417    2.4771438   -1.1549579   -19.215745   -233.09981  -0.88076348   -19.316912    2.4516924  -0.99445894   -9.3437217    -233.0835  -0.89363857   -9.3263106    198.58365  -0.93085136   -20.066082  -0.78763574  -0.90240976   -469.85325 
   21000    472.02597   -75.217237   -81.935519   -116.66974    303.72644    2.4862276   -1.1714641   -19.217826   -233.10628  -0.88970491   -19.312639     2.448692   -1.0235156   -9.3353955   -233.09653  -0.90616164    -9.301783     198.5785   -0.9399268   -20.068177  -0.78688182  -0.90236607   -469.85289 
   21100    472.02597    -104.5671   -72.569117    -114.0946      304.066    2.5020387   -1.1483798    -19.20464   -233.12702  -0.91395281   -19.277807    2.4888242   -0.9747137   -9.3507616    -233.1374   -0.9086604   -9.2652794    198.57415  -0.93486001    -20.07304  -0.78612791  -0.90232237   -469.85253 
   21200    472.02597   -46.541006   -53.971466    -89.80219    303.11047    2.5016648   -1.1523169   -19.203874   -233.13784  -0.89877747   -19.282761    2.4889657  -0.98342683   -9.3303608   -233.14133  -0.89865323   -9.2576265    198.56123  -0.94826141   -20.098251    -0.785374  -0.90227867   -469.85217 
   21300    472.02597    -91.80218   -82.462569   -119.00107    303.42941    2.5164524   -1.1484806   -19.209022   -233.13597  -0.87560702    -19.30373    2.5059198   -1.0025036   -9.3133598    -233.1426  -0.86116996   -9.2892117    198.58905  -0.94589917   -20.074418  -0.78462008  -0.90223498   -469.85182 
   21400    472.02597   -116.82453    -103.8756   -142.50286    303.64632    2.5016042   -1.1526249   -19.244951   -233.12617    -0.881787   -19.318489    2.5212957   -1.0004782   -9.3253458    -233.1422  -0.86611772   -9.3107049    198.61225  -0.93386501   -20.053401  -0.78386617  -0.90219128   -469.85146 
   21500    472.02597   -90.124291   -96.825004    -128.3944    303.58471    2.4836632   -1.1493414   -19.260062   -233.13557  -0.90601508   -19.259637    2.5011147  -0.96142964   -9.3382069    -233.1429  -0.90088505   -9.2640402    198.60416  -0.91873911   -20.053243  -0.78311225  -0.90214759    -469.8511 
   21600    472.02597   -114.95742   -90.480808   -121.24679    303.64582    2.4633964   -1.1551655   -19.255267   -233.10842  -0.92469464   -19.253527    2.4791007  -0.98193036   -9.3521934   -233.11657  -0.91882379   -9.2421313    198.59005   -0.9252878   -20.044621  -0.78235834  -0.90210389   -469.85074 
   21700    472.02597   -90.639685    -61.47947   -120.51804    303.32476    2.4538189   -1.1423139   -19.266375   -233.10143  -0.92495518   -19.259404    2.4454625   -0.9809672   -9.3819885   -233.11605  -0.93436288   -9.2530451    198.59031  -0.92844793   -20.073537  -0.78160443   -0.9020602   -469.85038 
   21800    472.02597   -75.210121   -74.382656   -110.99197    303.15133     2.468292   -1.1098935   -19.227671   -233.10152  -0.90866371   -19.243115    2.4548368  -0.96003265   -9.3503895   -233.11646  -0.90470983    -9.217711    198.58703   -0.9311036   -20.056531  -0.78085051   -0.9020165   -469.85002 
   21900    472.02597   -116.97617   -78.715863   -120.78205    303.89179    2.4716697    -1.119361   -19.211143   -233.08344  -0.89303277   -19.262373     2.442875  -0.96986299   -9.3481572   -233.10339  -0.87256091   -9.2206284    198.58882  -0.92305623   -20.045941   -0.7800966  -0.90197281   -469.84966 
   22000    472.02597   -114.34618   -80.133485   -117.37802    303.65763    2.4532083   -1.1376158   -19.216089   -233.09468  -0.88149296   -19.292143    2.3946715   -0.9980538   -9.3530582   -233.09975  -0.88841354   -9.2800992    198.60182  -0.91890485   -20.035386  -0.77934268  -0.90192911    -469.8493 
   22100    472.02597   -95.418837   -96.819546   -142.15218    303.52506    2.4381063   -1.1386391   -19.207562   -233.11295  -0.84415268   -19.291999    2.3778224  -0.99591017   -9.3509088   -233.09882  -0.82916095   -9.2890582    198.61217  -0.93938937   -20.044834  -0.77858877  -0.90188541   -469.84895 
   22200    472.02597   -125.32673   -99.083115   -192.90347    303.66893    2.4291167   -1.1662598    -19.19879   -233.09423  -0.85528607   -19.289437    2.3592924   -1.0274597   -9.3313577   -233.08403  -0.85584609   -9.3036559    198.61183  -0.96939026    -20.00766  -0.77783485  -0.90184172   -469.84859 
   22300    472.02597    -123.0246   -114.09093   -169.80623    303.61372    2.4536368   -1.1658097   -19.230115   -233.09246  -0.85291297   -19.296403    2.4035906  -0.98470969   -9.3567084    -233.0835  -0.86227949   -9.3210355    198.62211  -0.98788392    -19.99178  -0.77708094  -0.90179802   -469.84823 
   22400    472.02597   -129.34986   -107.22343   -214.44866    303.69786    2.4710631   -1.1693696    -19.22342   -233.09617  -0.85133285    -19.30108    2.4305982  -0.98227686   -9.3597912   -233.08691  -0.85832412   -9.3199952    198.60569  -0.96190804   -19.987927  -0.77632703  -0.90175433   -469.84787 
[...]
  999300    472.02597   -150.53112   -156.56615   -207.60587    303.56786    9.8072867  -0.69501389   -15.721268   -225.79073  -0.45900422   -15.753732    9.7730096  -0.49733309   -5.8458926   -225.81515  -0.46320513   -5.7859186    205.89629  -0.48483897   -16.568823      6.58866  -0.47489221   -466.34235 
  999400    472.02597   -147.01468   -139.97124   -188.56887     303.4143    9.8151909  -0.68559361   -15.721298   -225.81287  -0.45818036   -15.772505    9.8137427  -0.50403291   -5.8423744   -225.82045  -0.46145923   -5.8007708    205.88103  -0.46611405     -16.5273    6.5894139  -0.47484852   -466.34199 
  999500    472.02597   -149.29283   -140.26441   -219.46283    303.58082    9.8095121  -0.68547355   -15.745329   -225.81987  -0.46705407    -15.81032    9.8251744  -0.50975069   -5.8507926   -225.82359  -0.47782149   -5.8167896    205.87954  -0.47060617   -16.507387    6.5901679  -0.47480482   -466.34163 
  999600    472.02597   -132.17425   -131.31737   -201.74517    303.43323    9.8103354   -0.6764722   -15.754859   -225.79398   -0.4628425   -15.818266    9.7981624   -0.5064153   -5.8680529   -225.78794  -0.45181095   -5.8014431    205.87781  -0.47317336   -16.486395    6.5909218  -0.47476113   -466.34128 
  999700    472.02597   -144.39924   -135.71332   -219.09433    303.51373     9.820116  -0.66527525   -15.758651   -225.76281   -0.4662544   -15.811752    9.7971146  -0.50298082   -5.8653535   -225.75955  -0.44415135   -5.7937392    205.88936  -0.48236168   -16.445156    6.5916757  -0.47471743   -466.34092 
  999800    472.02597   -175.13119   -164.17629   -243.29632    303.61289    9.8020074  -0.65869307   -15.796466   -225.77419  -0.46535358   -15.812721    9.7906057  -0.51357361   -5.9326556    -225.7495  -0.46328098   -5.8030002     205.8837  -0.48614922   -16.444641    6.5924296  -0.47467373   -466.34056 
  999900    472.02597   -179.56338   -187.57374   -223.08291    303.46102    9.7915591  -0.65911917   -15.776222   -225.76089  -0.45678303   -15.796193    9.7785852  -0.50525677   -5.9293065   -225.74137   -0.4530638   -5.7957551    205.88724  -0.46731539   -16.406745    6.5931835  -0.47463004    -466.3402 
 1000000    472.02597   -191.01656   -164.53484   -248.23551    303.55543    9.7587941  -0.64744888   -15.783387   -225.77513  -0.44583131   -15.809406    9.7189724   -0.4794745   -5.9284946   -225.74274  -0.45107519   -5.8059594    205.87141  -0.46529118   -16.422715    6.5939374  -0.47458634   -466.33984 
 1000100    472.02597   -175.04741   -176.39838   -245.05084     303.5512    9.7728903   -0.6504583   -15.791709   -225.79288  -0.43973995   -15.814137    9.7603442  -0.46679259   -5.9382709   -225.75847  -0.44825966   -5.8156849    205.87165  -0.47190049   -16.398085    6.5946913  -0.47454265   -466.33948 
 1000200    472.02597    -186.1736   -191.44102   -250.61038    303.87893    9.7649505  -0.68225824   -15.791047    -225.8057  -0.45584155   -15.808685    9.7706087  -0.50701876   -5.9318023   -225.78839  -0.45494969   -5.7950345     205.8583  -0.47328966   -16.436912    6.5954453  -0.47449895   -466.33912 
 1000300    472.02597   -188.39373   -183.85008   -277.42455    303.75904     9.767414  -0.67594574   -15.795553    -225.7902  -0.47789364     -15.8098    9.7609851  -0.52194933   -5.9397907    -225.7965  -0.47279603   -5.8237415    205.87993  -0.48704107   -16.451437    6.5961992  -0.47445526   -466.33876 
 1000400    472.02597   -236.64278   -193.46864   -295.09055     303.7183     9.792886  -0.62797903   -15.809126   -225.82688  -0.48240908   -15.796933       9.7618   -0.4873871   -5.9434602   -225.81831  -0.48481224    -5.803847    205.87262  -0.48112534   -16.452065    6.5969531  -0.47441156   -466.33841 
 1000500    472.02597   -224.48328   -202.08561    -267.4469    303.31336    9.8276409  -0.63015272   -15.805685   -225.83977   -0.4705937   -15.753687    9.7947624  -0.46466922   -5.9074642   -225.83102  -0.48155839   -5.7425011    205.86371  -0.49135092   -16.449868     6.597707  -0.47436787   -466.33805 
 1000600    472.02597   -224.23966   -234.10404   -283.51193    303.73553    9.8244067  -0.63540807   -15.792561   -225.84423  -0.46914241    -15.74941    9.7780319  -0.45597065   -5.9013092   -225.80233  -0.47999035    -5.737399    205.84685  -0.50327255   -16.461902    6.5984609  -0.47432417   -466.33769 
 1000700    472.02597   -220.44741   -188.61624   -300.33924    303.57562     9.848149   -0.6673312   -15.797157   -225.83683   -0.4841305   -15.742735    9.7853492  -0.49503385   -5.9141015    -225.8229  -0.48919623   -5.7490693    205.85013  -0.49422211   -16.473594    6.5992148  -0.47428047   -466.33733 
 1000800    472.02597   -185.17313   -230.03474    -297.2661    303.49703    9.8426111  -0.67358501   -15.802858    -225.8424  -0.48592662    -15.73112    9.7816825  -0.48807535   -5.9317321   -225.84017  -0.49925753   -5.7304382    205.82508  -0.49919218   -16.489514    6.5999687  -0.47423678   -466.33697 
 1000900    472.02597   -222.10785   -200.56168   -286.02863    303.41203    9.8813302  -0.65900422   -15.792276   -225.83939  -0.49330267   -15.766324    9.8364031  -0.49345308   -5.9242633     -225.842  -0.49011694   -5.7898643     205.8129  -0.50240104   -16.483628    6.6007226  -0.47419308   -466.33661 
 1001000    472.02597   -239.00913   -211.67713   -297.73382    303.65499    9.8885813  -0.66174965   -15.787602   -225.85576  -0.49311958   -15.758379    9.8468922  -0.53304249   -5.8935106   -225.85235  -0.49543703   -5.7823583    205.80568  -0.49197027   -16.498347    6.6014766  -0.47414939   -466.33625 
 1001100    472.02597   -221.26485   -223.82659   -284.05663     303.6317    9.8983429  -0.64849082   -15.790652   -225.84389  -0.46558116   -15.775026     9.863494  -0.50795288   -5.9126315   -225.83536  -0.42341203   -5.8224169    205.79183  -0.49289147   -16.488112    6.6022305  -0.47410569   -466.33589 
 1001200    472.02597   -220.63229    -190.5977   -289.54162    303.16306    9.9376718  -0.67452204    -15.78287   -225.83523  -0.46714613   -15.784163    9.9361237  -0.50183487   -5.9186054   -225.83911  -0.43184312   -5.8005603    205.79609  -0.50424576   -16.508345    6.6029844    -0.474062   -466.33553 
 1001300    472.02597   -230.74726    -188.8253   -295.46876    303.53799    9.9293431   -0.6858225   -15.786347   -225.85464  -0.46880953   -15.786431    9.9232314  -0.51188207   -5.9185985   -225.86431  -0.46365229   -5.8105711    205.80615  -0.49713201   -16.508717    6.6037383   -0.4740183   -466.33518 
 1001400    472.02597   -233.07653   -198.93206   -292.07106     303.4612    9.9378912  -0.71955644     -15.7432   -225.87814  -0.47810191   -15.782157     9.930966  -0.56131121   -5.8563765   -225.87466  -0.46098908   -5.7841422    205.81575  -0.51129325   -16.519963    6.6044922  -0.47397461   -466.33482 
 1001500    472.02597   -234.25444   -207.28429   -309.21564     303.5955    9.9366415  -0.71137108   -15.756921   -225.86835   -0.4790789   -15.779313    9.9279135  -0.54455346   -5.8745515   -225.85773  -0.45839674   -5.7840698    205.79933  -0.51409671   -16.511322    6.6052461  -0.47393091   -466.33446 
 1001600    472.02597   -228.71122   -208.82254    -321.9976    303.39361    9.9217958  -0.66261005   -15.771239   -225.87427  -0.45364779   -15.782018      9.92865  -0.48444005   -5.9070069   -225.85204  -0.44879952   -5.7992082    205.81041  -0.52857077   -16.502573        6.606  -0.47388721    -466.3341 
 1001700    472.02597   -252.01562   -253.73633   -329.42053     303.8247    9.9254982  -0.68486592   -15.745245   -225.86135  -0.44754815   -15.747284    9.9311483  -0.52006677   -5.8974322   -225.84565  -0.47017214   -5.7880101    205.82259  -0.51292765   -16.516043     6.606754  -0.47384352   -466.33374 
 1001800    472.02597   -234.12151   -223.91545    -330.6445    303.38639    9.9041955  -0.68049445   -15.731782    -225.8525  -0.46105231   -15.764851    9.8994487  -0.50525867   -5.8760222   -225.83206  -0.47311106   -5.8050538    205.80417  -0.50469508   -16.504126    6.6075079  -0.47379982   -466.33338 
 1001900    472.02597   -255.97279   -252.40882     -345.717    303.66033    9.8898672  -0.67529054   -15.728126   -225.83829  -0.44817493   -15.739871     9.875622  -0.49895221   -5.8509704   -225.81282  -0.45887373   -5.7749098    205.80487  -0.49578944   -16.513788    6.6082618  -0.47375613   -466.33302 
 1002000    472.02597   -267.50578   -260.63033   -332.27308    303.60151    9.8872655  -0.70747355   -15.708858   -225.82655  -0.44815257   -15.741672    9.8818846  -0.55298953   -5.8234072   -225.82134  -0.43460081   -5.7462362    205.78754  -0.49801276   -16.536395    6.6090157  -0.47371243   -466.33266 
 1002100    472.02597   -254.76719   -283.06038   -352.13975    303.41278    9.8710109  -0.71012693    -15.69301   -225.82081  -0.44722994   -15.757223    9.8706469  -0.54298543   -5.7894796   -225.83907  -0.46533227   -5.7591471    205.78469  -0.52671716   -16.539983    6.6097696  -0.47366874   -466.33231 
 1002200    472.02597   -310.91271   -267.96251   -374.86514    303.34327    9.8897331  -0.70241933    -15.66107   -225.84273  -0.45203462   -15.756663    9.8678641  -0.54268138   -5.7606315   -225.85432  -0.47186327   -5.7485529    205.77807  -0.51928603   -16.524274    6.6105235  -0.47362504   -466.33195 
 1002300    472.02597   -280.28009   -298.77621   -388.40709    303.38492    9.8867122  -0.74890355   -15.629447   -225.84631  -0.45412601   -15.744655    9.8627223  -0.60729147   -5.7678863   -225.87566  -0.47693369   -5.7361329    205.78989  -0.51958093   -16.495047    6.6112774  -0.47358134   -466.33159 
 1002400    472.02597   -275.00273   -291.15402   -383.70005    303.33853    9.8723314  -0.76025508   -15.662018   -225.85783  -0.47924823   -15.729317    9.8632733  -0.60590792   -5.8064331   -225.90387  -0.46988153   -5.7412533    205.78223  -0.50542976   -16.461862    6.6120314  -0.47353765   -466.33123 
 1002500    472.02597   -304.03261   -287.96614   -408.66538    303.34789    9.8453808  -0.76383033   -15.648122   -225.86048  -0.47478274   -15.734568    9.8421967  -0.61790527   -5.7621179   -225.88011   -0.4654737   -5.7389308    205.77372  -0.51804934   -16.453608    6.6127853  -0.47349395   -466.33087 
 1002600    472.02597   -330.90144   -304.86894   -416.54169    303.61621    9.8321094  -0.78100594   -15.625101   -225.85539   -0.4665504   -15.711227    9.8257577  -0.63193862   -5.7359152   -225.86526  -0.44687316   -5.7301939     205.7865  -0.50229629   -16.448981    6.6135392  -0.47345026   -466.33051 
 1002700    472.02597   -281.31066   -325.85605   -395.59693     303.5006    9.8215053  -0.78051276   -15.619537   -225.84217   -0.4809608   -15.715222    9.8288958  -0.63291136   -5.7204054   -225.86656  -0.46775627   -5.7315826    205.77408  -0.49529123   -16.467022    6.6142931  -0.47340656   -466.33015 
 1002800    472.02597   -298.16414   -292.84248   -377.80909    303.52196    9.8215962  -0.78473889   -15.642859    -225.8485  -0.47131896   -15.728418    9.8196098  -0.64653816   -5.7446472    -225.8568  -0.47594421   -5.7437321    205.78075  -0.51227517   -16.457212     6.615047  -0.47336287   -466.32979 
 1002900    472.02597   -322.15195   -283.06447   -403.89673    303.58179    9.8174386  -0.76296995   -15.639678   -225.84467  -0.46677834   -15.735563    9.7940534  -0.62885766    -5.743411   -225.83724  -0.47482455   -5.7579114    205.76725  -0.51182316    -16.44963    6.6158009  -0.47331917   -466.32943 
 1003000    472.02597   -321.55763    -314.3555    -419.7561     303.7194    9.8441333    -0.752037   -15.652954   -225.85023  -0.49923848   -15.731476    9.8111369  -0.58340521   -5.7760974   -225.84279  -0.47431563   -5.7468819       205.78  -0.51249118   -16.463531    6.6165548  -0.47327548   -466.32908 
 1003100    472.02597   -284.95216   -297.31802   -356.59529    303.11004    9.8302927  -0.74017348   -15.657874   -225.85755  -0.47907052   -15.700647    9.7987604  -0.55375398   -5.7860149   -225.85615  -0.47965698   -5.7065287    205.78788  -0.53249158   -16.439316    6.6173088  -0.47323178   -466.32872 
 1003200    472.02597   -265.77521   -309.72281   -338.68919    303.41751    9.7983873  -0.72075319   -15.651856   -225.84772  -0.49845517   -15.674701    9.7549967  -0.54455249    -5.787278   -225.86374   -0.4930852   -5.6878106    205.78511  -0.55647723   -16.422697    6.6180627  -0.47318808   -466.32836 
 1003300    472.02597   -325.14377   -307.15136   -418.45568     303.9586    9.7966736  -0.73813622   -15.637436    -225.8496  -0.50955757   -15.659029    9.7575954  -0.55460598   -5.7881931   -225.87026  -0.51367024   -5.6706266    205.80329  -0.53352413   -16.418003    6.6188166  -0.47314439     -466.328 
 1003400    472.02597   -284.53862   -303.13191   -384.79414     303.3996    9.7856402  -0.71542712   -15.658705   -225.85579  -0.52461321   -15.676094    9.7568079  -0.52313171   -5.8028584   -225.89098  -0.53595225   -5.6981249    205.82117  -0.53419186    -16.42408    6.6195705  -0.47310069   -466.32764 
 1003500    472.02597   -287.09506   -298.54606   -404.92986    303.44681    9.7793123  -0.70133669   -15.680957   -225.85091  -0.52988073   -15.681256    9.7551881  -0.50052258   -5.8254431   -225.85435  -0.50460446   -5.6923653    205.84633  -0.53893948   -16.450658    6.6203244    -0.473057   -466.32728 
 1003600    472.02597     -319.154   -317.66065   -407.10519    303.45387    9.7847286  -0.71529433   -15.676692   -225.84512  -0.51143063   -15.683237    9.7702739  -0.55162558   -5.8064533   -225.82526  -0.49518968   -5.7089417    205.85355  -0.53489439   -16.445228    6.6210783   -0.4730133   -466.32692 
 1003700    472.02597   -296.06498   -312.78559   -415.65395    303.68976    9.7749725  -0.70560272   -15.686738   -225.83723  -0.50573295   -15.684606    9.7553209  -0.56079781   -5.8087794   -225.82088  -0.50277269   -5.7041858    205.85611    -0.549505   -16.445168    6.6218322  -0.47296961   -466.32656 
 1003800    472.02597   -265.08009   -263.33535   -376.59258    303.20708    9.7651858  -0.70180976   -15.735807   -225.84618  -0.53405051   -15.671146    9.7339771  -0.55709868   -5.8736718   -225.84206  -0.51898849   -5.6776632     205.8579  -0.52205508   -16.417845    6.6225862  -0.47292591    -466.3262 
 1003900    472.02597    -247.4207   -245.57681   -371.62425    303.26452    9.7488738  -0.69944286   -15.746161   -225.82982  -0.53680387   -15.664264    9.7187683  -0.57152236   -5.8676225   -225.81527  -0.54792299   -5.6831491    205.84958  -0.51496778   -16.406983    6.6233401  -0.47288222   -466.32585 
 1004000    472.02597   -273.30132   -238.17878   -341.14844     303.5666    9.7328345  -0.71174303   -15.731851   -225.83125  -0.51288508    -15.67125    9.6954743  -0.58046593   -5.8332415   -225.81771  -0.52867528   -5.6698122    205.85876   -0.5235793   -16.395908     6.624094  -0.47283852   -466.32549 
 1004100    472.02597   -226.20268   -213.03509   -330.68826     303.1463    9.7254687  -0.67588418   -15.732132   -225.85105  -0.49845304   -15.642057    9.6772194  -0.53821295   -5.8581696   -225.82354  -0.52758213   -5.6400478     205.8741  -0.55069122   -16.365909    6.6248479  -0.47279482   -466.32513 
 1004200    472.02597   -220.39686   -231.75614   -271.61858    303.49016    9.7595112  -0.69806347   -15.729765   -225.84202  -0.48145498   -15.640703    9.7053573  -0.55999264   -5.8740181   -225.82534  -0.49073702   -5.6144507    205.88279  -0.55941419   -16.391039    6.6256018  -0.47275113   -466.32477 
 1004300    472.02597   -206.98761   -185.34499   -288.93348    303.24495     9.766448  -0.69968781   -15.742593   -225.82043  -0.50633873   -15.636819    9.7053109  -0.54894769   -5.8850069   -225.80697  -0.51586753   -5.6079209     205.8887  -0.55555733   -16.406507    6.6263557  -0.47270743   -466.32441 
 1004400    472.02597   -154.56952   -198.15926   -249.08836    303.47818    9.7377489  -0.71622585   -15.777343    -225.8022   -0.5022095   -15.648668    9.6619726  -0.54352884   -5.9055831   -225.79595  -0.49918549   -5.6576159    205.88361  -0.55495177   -16.415798    6.6271096  -0.47266374   -466.32405 
 1004500    472.02597    -155.2521   -174.49997   -233.52476    303.46435    9.7273016  -0.70721205   -15.778954   -225.80933  -0.46404773   -15.647826    9.6354094  -0.51922934    -5.927835   -225.81124  -0.47288882   -5.6615903    205.88461  -0.55377915    -16.43597    6.6278636  -0.47262004   -466.32369 
 1004600    472.02597    -169.8864   -181.68581   -228.93523    303.74653    9.7407341  -0.69388686   -15.803624   -225.80254  -0.46246885    -15.65832    9.6622102   -0.5209119    -5.944569    -225.8188  -0.46276517   -5.6663923    205.87035  -0.55441816   -16.439717    6.6286175  -0.47257635   -466.32333 
 1004700    472.02597   -170.81106   -173.66359   -240.49095    303.42134    9.7589896  -0.69002186   -15.792125   -225.78246    -0.457137   -15.650997    9.6900512  -0.50552268   -5.9020999   -225.80887  -0.47771043   -5.6528512    205.89442  -0.55630049   -16.443489    6.6293714  -0.47253265   -466.32298 
 1004800    472.02597    -190.7376   -177.85233   -238.26479    303.80975    9.7790387  -0.69840948   -15.812351   -225.78421   -0.4710338   -15.642154     9.726532  -0.49707354    -5.889318   -225.80322   -0.4887836   -5.6479353    205.89743  -0.50900848   -16.449449    6.6301253  -0.47248896   -466.32262 
 1004900    472.02597   -192.12816   -162.50938   -236.58577    303.92787    9.7844447  -0.68218988    -15.80664   -225.79031  -0.48018213   -15.645644    9.7482281  -0.50241466   -5.8990593   -225.80056  -0.49312038   -5.6507551    205.88219  -0.49408338   -16.458916    6.6308792  -0.47244526   -466.32226 
 1005000    472.02597   -164.11102   -161.77151    -256.2753    303.88124     9.797605  -0.67939041   -15.829613   -225.78493  -0.44811683   -15.651677    9.7751569   -0.5033014   -5.9436561   -225.80344  -0.43855547   -5.6536845    205.90262  -0.48366578    -16.45476    6.6316331  -0.47240156    -466.3219 
Loop time of 12204.9 on 512 procs for 1000000 steps with 812328 atoms

Performance: 14.158 ns/day, 1.695 hours/ns, 81.934 timesteps/s
99.9% CPU use with 512 MPI tasks x no OpenMP threads

MPI task timing breakdown:
Section |  min time  |  avg time  |  max time  |%varavg| %total
---------------------------------------------------------------
Pair    | 2911.5     | 8040.2     | 8609.7     |1158.2 | 65.88
Neigh   | 0.003113   | 1.1393     | 1.2459     |  22.8 |  0.01
Comm    | 228.89     | 1227.3     | 3418.9     |1254.3 | 10.06
Output  | 5.7985     | 5.8892     | 6.814      |   1.9 |  0.05
Modify  | 67.813     | 95.662     | 106.62     |  59.2 |  0.78
Other   |            | 2835       |            |       | 23.23

Nlocal:    1586.58 ave 1830 max 0 min
Histogram: 16 0 0 0 0 16 12 4 256 208
Nghost:    4312.07 ave 4835 max 0 min
Histogram: 16 0 0 0 4 19 9 0 0 464
Neighs:    111730 ave 130123 max 0 min
Histogram: 16 0 0 0 16 0 12 4 273 191

Total # of neighbors = 57205512
Ave neighs/atom = 70.4217
Neighbor list builds = 190
Dangerous builds = 0



Total wall time: 3:28:37
8:20
14 max 0 min
Histogram: 16 0 0 15 1 0 0 16 149 315

Total # of neighbors = 57203370
Ave neighs/atom = 70.4166
Neighbor list builds = 193
Dangerous builds = 0



Total wall time: 3:28:21
dify  | 59.877     | 101.33     | 113.48     |  97.6 |  0.81
Other   |            | 2950       |            |       | 23.59

Nlocal:    1586.58 ave 1810 max 96 min
Histogram: 16 16 0 0 0 0 0 0 161 319
Nghost:    4345.43 ave 4825 max 1104 min
Histogram: 16 16 0 0 0 0 0 16 115 349
Neighs:    111721 ave 129052 max 5851 min
Histogram: 29 3 0 0 0 0 0 0 199 281

Total # of neighbors = 57201195
Ave neighs/atom = 70.4161
Neighbor list builds = 164
Dangerous builds = 0



Total wall time: 3:33:49
me: 3:29:55
