LAMMPS (28 Jun 2014)
#log		log.c
units           metal
dimension       3
boundary        p p p
atom_style      atomic
shell         mkdir  cfg
shell         mkdir  dump


# ----------------------- ATOM DEFINITION & Force Field -------------
read_data     NPT_relaxed.data       ##Read file dumped from simulation 1
Reading data file ...
  orthogonal box = (-28.3246 -8.09275 -153.407) to (28.3246 8.09275 20.5871)
  3 by 1 by 5 MPI processor grid
  reading atoms ...
  6384 atoms
  reading velocities ...
  6384 velocities

pair_style      eam/alloy
pair_coeff  	  * * Al_wkg_MSMSE_2009.set Al

#---------------------- DEFINE Laser GERION and GROUP ----------------
region       R1  block -15  15  INF  INF  INF  5  units box
group        G1 region R1
3420 atoms in group G1
group        G2 subtract all G1
2964 atoms in group G2


#define     temperature/pressure calculation  group
variable    x1atom atom "x>=0  &&  x<4 &&  z>-40 && z<1"     ##NEW!!!!!!!!!!!!
variable    x2atom atom "x>=-28.32  &&  x<-24.32 &&  z>-40 && z<1"
variable    x3atom atom "x>=0  &&  x<4 &&  z>-20 && z<1"
variable    x4atom atom "x>=-28.32  &&  x<-24.32 &&  z>-20 && z<1"
variable    x5atom atom "x>=196  &&  x<200 &&  z>-40 && z<1"

group       x1atom variable x1atom
148 atoms in group x1atom
group       x2atom variable x2atom
149 atoms in group x2atom
group       x3atom variable x3atom
85 atoms in group x3atom
group       x4atom variable x4atom
79 atoms in group x4atom
group       x5atom variable x5atom
0 atoms in group x5atom


compute      COM1x x1atom com
compute      COM2x x2atom com
compute      COM3x x3atom com
compute      COM4x x4atom com
compute      COM5x x5atom com

compute      COMall all com

#Temperature profile
#variable      Tprofile atom 300*(1+(step/5000)*2.5*exp(z/40))
variable      Tprofile atom 300*(1+(step/5000)*2.5*exp(z/75))

# ------------------------- SETTINGS ---------------------------------
thermo          100
thermo_style    custom step lx pxx pyy pzz temp c_COM1x[1] c_COM1x[2] c_COM1x[3] c_COM2x[1] c_COM2x[2] c_COM2x[3] c_COM3x[1] c_COM3x[2] c_COM3x[3] c_COM4x[1] c_COM4x[2] c_COM4x[3]  c_COM5x[1] c_COM5x[2] c_COM5x[3] c_COMall[1] c_COMall[2] c_COMall[3]

timestep       0.002


compute dispall all displace/atom
# ---------------- Run Laser Material Interaction --------------------
#dump          1 all custom 1000 dump/z1dump.atom id type x y z c_dispall[1]  c_dispall[2]  c_dispall[3] c_dispall[4]
#dump          2 all cfg 100 cfg/*.cfg mass type xs ys zs
#dump_modify   2 element Al

#relax for 2 PS
#fix           1 all nvt temp 300.0 300.0 0.1
#run  1000
#unfix         1

fix           1  all nve
fix           3temp  G1  langevin  v_Tprofile  0  0.1  378411   #TEST ALL
run           5000
Setting up run ...
Memory usage per processor = 0.14872 Mbytes
Step Lx Pxx Pyy Pzz Temp COM1x[1] COM1x[2] COM1x[3] COM2x[1] COM2x[2] COM2x[3] COM3x[1] COM3x[2] COM3x[3] COM4x[1] COM4x[2] COM4x[3] COM5x[1] COM5x[2] COM5x[3] COMall[1 COMall[2 COMall[3 
       0    56.649272   -48.855759   -95.209791   -936.27455    304.10217    1.6635278  -0.99999814   -18.539544   -26.849657  -0.73885328   -18.820264    1.4899109  -0.91734764   -9.6398425   -27.056173  -0.63798273   -9.0676031            0            0            0   -1.0115942   -1.0115942   -56.294007 
     100    56.649272     227.0621    252.94143   -287.16834    304.41503     1.671895   -1.0041132   -18.600409   -26.890769  -0.74681569   -18.828492    1.5075516  -0.93087943   -9.6696092   -27.076974  -0.61552323   -9.0724518            0            0            0   -1.0151232   -1.0127836   -56.295486 
     200    56.649272    664.42145    618.19882    278.52154    310.55816    1.6475625   -1.0460473   -18.612312   -26.929806  -0.77147325   -18.844264     1.483907  -0.97990741   -9.7162599   -27.115327  -0.68110164    -9.086502            0            0            0    -1.018478   -1.0238365   -56.290013 
     300    56.649272    912.88509    875.41985    407.24868     310.6314     1.643695   -1.0442944   -18.574708   -26.899274  -0.78424922   -18.847113    1.4675254   -1.0202821   -9.6731409   -27.115763  -0.72713781   -9.1200102            0            0            0     -1.02184   -1.0269087   -56.283638 
     400    56.649272    723.08889     921.5329    225.71053    315.60588    1.6446991   -1.0135446   -18.557099   -26.885469  -0.76996182   -18.850313    1.5224065  -0.92476187   -9.6322744   -27.071464  -0.74436342   -9.1454144            0            0            0   -1.0203014   -1.0261741   -56.282292 
     500    56.649272     1210.365    1284.7079    710.33395    319.52859    1.6536964  -0.97049224   -18.556215   -26.885161  -0.78720156   -18.862154    1.5028139  -0.85458365   -9.6304526    -27.09552  -0.69577543   -9.1625506            0            0            0   -1.0132851    -1.030141   -56.277952 
     600    56.649272    1434.2225    1430.9306    779.06258    325.33625    1.6993074  -0.97421987    -18.60118   -26.915441  -0.74331209    -18.83457    1.5496295  -0.81054934   -9.7208919   -27.129108  -0.60386098   -9.1313196            0            0            0    -1.011074   -1.0343338   -56.279139 
     700    56.649272    1733.6588    1399.3702    1033.1451    333.34179    1.6965652  -0.96056737    -18.61521   -26.882789  -0.71106321   -18.811144    1.5388128  -0.82985462   -9.7184479    -27.10868  -0.58277412    -9.051118            0            0            0   -1.0108858   -1.0311703    -56.27787 
     800    56.649272    1696.0985    1600.8797     997.2823    339.57633    1.6922792  -0.93924435   -18.597636   -26.821858  -0.69603272   -18.741679    1.5481737  -0.82714117   -9.6918924   -27.055252  -0.61042199   -8.9729611            0            0            0   -1.0069045   -1.0345757   -56.269112 
     900    56.649272    1802.4924    1963.3685    1210.9734    352.24878    1.6566215   -0.9370229   -18.547563   -26.847883  -0.71864134   -18.753647    1.4633332  -0.81396085   -9.6343105   -27.079714  -0.62394194   -8.9867382            0            0            0   -1.0067094   -1.0334372   -56.261946 
    1000    56.649272    1866.4684    1986.3455    1073.3512    352.76889    1.6662212  -0.96475274   -18.534975   -26.836854  -0.65718643   -18.701506    1.4855883  -0.86710776   -9.6116105   -27.049976   -0.5603793   -8.9396921            0            0            0   -1.0087141   -1.0333409   -56.257982 
    1100    56.649272    2144.7935    2046.7403    897.26405    358.46462     1.647376  -0.98135282    -18.53067   -26.926642  -0.66046815   -18.700554    1.4817305  -0.89786917   -9.6090657   -27.200129  -0.53473529    -8.915418            0            0            0   -1.0188947   -1.0304996   -56.259202 
    1200    56.649272     1824.729    1811.8086     724.3614    367.77438    1.6511023  -0.94182258   -18.530124   -26.925303  -0.70360847   -18.714457    1.4439772  -0.85124553   -9.6244865   -27.165942  -0.50786105   -8.9746799            0            0            0   -1.0181604   -1.0275385   -56.261958 
    1300    56.649272    1802.4249    1888.3673    693.40012    369.63575    1.7088943  -0.92015908   -18.497029    -26.89649  -0.69283587    -18.72714    1.5162575  -0.79209502   -9.5382032   -27.130733  -0.49449539    -8.955259            0            0            0   -1.0207751   -1.0295353   -56.261662 
    1400    56.649272    2737.0469    2479.8928    1491.9991    374.99074     1.694578  -0.94053856   -18.512512   -26.845088  -0.73810406   -18.669277    1.4754137  -0.78040653   -9.5523831    -27.03117  -0.58521086   -8.9044506            0            0            0   -1.0232296   -1.0381959   -56.269503 
    1500    56.649272    2855.9853    2783.6817    1467.8224    390.91248    1.7125035  -0.99918715   -18.454522   -26.822116  -0.74079314    -18.69954    1.5181954   -0.8797158   -9.4867982   -27.053541  -0.61718783   -8.9621154            0            0            0   -1.0204649   -1.0518314   -56.276889 
    1600    56.649272    2977.9781    2824.5924    1794.5305    395.75177    1.7047026   -1.0569045   -18.473799   -26.818453  -0.78146467   -18.743628    1.4959044  -0.94477337   -9.4871977   -27.071303  -0.65221266   -8.9928686            0            0            0   -1.0208549   -1.0649226   -56.277543 
    1700    56.649272    2857.2725    2955.3987    1678.7729    401.27243    1.6973706   -1.0063999   -18.450546   -26.836725  -0.83644568   -18.780447    1.4517647  -0.91354653   -9.4583648   -27.071121  -0.70717114   -9.0092442            0            0            0   -1.0304705   -1.0742789   -56.278692 
    1800    56.649272    3032.0689    3410.7853    1632.3173    405.46011    1.6829879    -1.022557   -18.499913   -26.893273  -0.82310719   -18.736372     1.468885  -0.94081396   -9.4946731   -27.151501   -0.7198968   -8.9648241            0            0            0    -1.042969   -1.0774566   -56.294057 
    1900    56.649272    2923.5796    2899.5723     1373.876    406.68895    1.6915717   -1.0273866   -18.485647      -26.913  -0.80972841   -18.617431    1.4762234  -0.95911586   -9.5235012   -27.162576  -0.71668132   -8.7922133            0            0            0   -1.0566417   -1.0788413   -56.311478 
    2000    56.649272    3394.6227    3367.0288    1595.8117     426.4428    1.6406013   -1.0528732   -18.504531   -26.883692   -0.7770492   -18.656819    1.4332374   -1.0045076   -9.5508677   -27.154969  -0.67854829   -8.8444695            0            0            0   -1.0625844   -1.0803747   -56.309354 
    2100    56.649272    3463.7531    3027.3813    1426.1013    425.13926    1.6224321   -1.0455476   -18.476716   -26.924449  -0.80687415   -18.690597    1.4462992  -0.97594309   -9.5099961   -27.162611  -0.68998185   -8.9181859            0            0            0   -1.0698672   -1.0907024   -56.314547 
    2200    56.649272    3542.7722    3612.7304     1500.419    437.37998     1.679119   -1.0647535   -18.433343    -26.91867  -0.76335463   -18.607893    1.5308842   -1.0012433   -9.4986731    -27.13533  -0.66753736   -8.8093409            0            0            0   -1.0672609    -1.099169   -56.316336 
    2300    56.649272    3582.9472    3443.0115     1190.858    443.24378    1.6593912    -1.042066   -18.408955   -26.915188  -0.85304905   -18.616925    1.5003054  -0.93735081   -9.4598675   -27.123933  -0.78208996   -8.8089695            0            0            0   -1.0570318   -1.1099219   -56.310403 
    2400    56.649272    3800.8552    3589.1691    1346.8184    446.67644    1.6418977   -1.0182604   -18.396503   -26.900007  -0.89684845   -18.596604    1.4925962  -0.91603851   -9.4354675   -27.043266  -0.77107918    -8.759662            0            0            0   -1.0486694   -1.1075674   -56.300862 
    2500    56.649272    4054.5035    4091.3606    1640.6007    457.98602    1.6631263   -1.0681911   -18.389812   -26.925423  -0.89165756   -18.570034    1.5369719  -0.92685488   -9.4301919     -27.1013  -0.76561507   -8.6885824            0            0            0   -1.0492557    -1.107956   -56.291903 
    2600    56.649272    3984.3568    4062.6656     1758.585    463.81432    1.6760283  -0.99903512   -18.370492   -26.871874  -0.82485739   -18.570625    1.5458371  -0.88302734   -9.4326442   -27.064686  -0.70577144   -8.7312258            0            0            0   -1.0461159   -1.0964161   -56.286236 
    2700    56.649272    4981.9301    4720.8643    2596.7725    466.44692    1.7084507  -0.98117969   -18.436508   -26.850928  -0.78940373    -18.53552    1.5309287  -0.87264419   -9.4815213     -27.0357   -0.5798807   -8.7040256            0            0            0   -1.0486548   -1.0753009   -56.282064 
    2800    56.649272    4834.1406    4536.2152    2260.6725    481.25443      1.65372    -1.040627   -18.360217    -26.82241  -0.77630895   -18.520564    1.4907886   -0.9256437   -9.3491978   -27.011506  -0.65961783   -8.6951443            0            0            0   -1.0551634   -1.0666483   -56.282006 
    2900    56.649272    4989.6456    5098.0954    2720.6474    487.28576    1.6719539   -1.0521187   -18.362116   -26.824888  -0.75844184   -18.511322    1.4764458  -0.92733906   -9.3520951   -27.004581  -0.69427523   -8.6471264            0            0            0   -1.0502803    -1.055001   -56.285809 
    3000    56.649272    4704.0506    5057.9802    2255.4986    496.02735    1.7257602   -1.0229198   -18.341303    -26.80916  -0.83193622   -18.466043    1.5581647  -0.92243853    -9.325967   -26.998521  -0.80586414   -8.5795544            0            0            0   -1.0345715   -1.0597803   -56.280878 
    3100    56.649272    4674.3152    4760.1245    1419.6105    502.06477    1.7089055   -1.1006544   -18.284289   -26.764519  -0.83460628    -18.38908    1.5458777  -0.97842519    -9.225769   -26.959307  -0.76036374   -8.4877012            0            0            0   -1.0239613   -1.0732841   -56.275523 
    3200    56.649272    4778.9481     4817.487    1388.3806    498.22436    1.7154332   -1.1039126   -18.277504   -26.762636  -0.82553608   -18.382585    1.5590513  -0.99393353   -9.2322311   -26.901063  -0.73428916   -8.4556134            0            0            0   -1.0241506   -1.0871846   -56.282205 
    3300    56.649272    5053.7987    5060.9519    1649.3369    500.20129    1.7331354   -1.1558808   -18.296837   -26.793577  -0.86924211   -18.404351    1.5675183   -1.0506045   -9.2680619   -26.952525  -0.77745808   -8.5581823            0            0            0   -1.0292855   -1.0968354   -56.290647 
    3400    56.649272    5046.0155    4869.2866    1444.5806    521.54387    1.7952627   -1.1460599   -18.303518    -26.84906  -0.86984184   -18.371461    1.6247702   -1.0568599   -9.2842255   -27.068211  -0.75931979   -8.4442993            0            0            0   -1.0255564   -1.1198937   -56.303182 
    3500    56.649272     5728.005     5592.652    2442.7384    524.93877    1.8173984   -1.1568028   -18.233431   -26.781993  -0.89802046   -18.409754    1.6467805   -1.1280315   -9.2181442   -27.006089  -0.80385905   -8.5388176            0            0            0   -1.0145034   -1.1324942   -56.299997 
    3600    56.649272    5647.0735    5591.6722    1936.6847    541.69078    1.7922834   -1.1247074   -18.213971   -26.769862  -0.98208506   -18.419335    1.6059537   -1.0939399   -9.1589513   -27.017353  -0.89823206   -8.5021054            0            0            0  -0.99934849   -1.1386595   -56.305989 
    3700    56.649272    6242.8176    5805.4249    2533.8213    553.20246     1.789321   -1.0664765   -18.241102   -26.759383  -0.96393161   -18.444442    1.6179817   -1.0264632   -9.1860655   -27.018634    -0.876536   -8.5605964            0            0            0  -0.99719246   -1.1516855   -56.312296 
    3800    56.649272    6152.3779    5915.9985    2399.8135    545.78017    1.7885645   -1.1073123   -18.216058   -26.786863   -1.0244491    -18.44027      1.58983   -1.0666555    -9.138026     -27.0049  -0.95700135   -8.5024763            0            0            0   -1.0010547   -1.1517129    -56.30267 
    3900    56.649272    5954.2593    6165.0608     2370.422    564.34167    1.7758055   -1.1739586   -18.112694   -26.779013   -1.0235217   -18.389254    1.6205975   -1.0964982   -9.0319112   -26.927996     -1.03254    -8.386436            0            0            0   -1.0030198   -1.1488046   -56.292869 
    4000    56.649272    6231.3825     6390.124    2401.2869    561.41821    1.7401774   -1.1742859   -18.107699   -26.786186   -1.0152592   -18.275603    1.5801676   -1.1291284     -9.03739   -26.953566  -0.96285254   -8.2880349            0            0            0   -1.0101176   -1.1223887   -56.274948 
    4100    56.649272    6898.3705    6913.3342     3352.094    572.22767    1.7590158   -1.2118973   -18.127582   -26.826924  -0.96926942   -18.220848    1.5814948   -1.1230457   -9.0527193    -26.99567   -0.8858104   -8.2806078            0            0            0   -1.0149798   -1.1025702   -56.257613 
    4200    56.649272    6534.3988    6566.4264    2441.0518    574.98569    1.7168489    -1.173009   -18.144709   -26.795425  -0.91285634    -18.17198    1.5148562    -1.138204   -9.0711465   -27.042159  -0.86714017   -8.1908134            0            0            0   -1.0302538   -1.0876573   -56.240774 
    4300    56.649272    6703.3142     6376.703    2366.8406    584.48582    1.7401113   -1.1980693   -18.143463   -26.798392  -0.90299352   -18.117205    1.5026602   -1.1481078   -9.0978976   -27.059895  -0.86944347   -8.1106956            0            0            0   -1.0410619   -1.0742441   -56.231571 
    4400    56.649272    6607.5045    6359.1623    2511.6988    593.60168    1.7138849   -1.1463757   -18.132158   -26.858203  -0.82818597   -18.153226    1.4614914   -1.0803726   -9.0576359   -27.121668  -0.74111414   -8.2004836            0            0            0   -1.0400946   -1.0689381   -56.237696 
    4500    56.649272    6866.2025    6563.5582    2366.1599    612.04539    1.7247405   -1.1567594   -18.093551   -26.901265  -0.74179477   -18.136183    1.4570491   -1.1001594    -8.981487   -27.197964  -0.59532544   -8.1356235            0            0            0   -1.0358002   -1.0692847   -56.241566 
    4600    56.649272    7266.1108    7215.7424    2266.3011     622.0043    1.6732644   -1.0892641   -18.078931   -26.852883  -0.72672055   -18.171644    1.3418934   -1.0271987    -8.987354    -27.10886  -0.64976089   -8.1255059            0            0            0   -1.0293527   -1.0746256   -56.259453 
    4700    56.649272    7128.3804    7298.1904    2899.9002    621.00352    1.7040388    -1.098699    -18.16373   -26.862757  -0.78993108   -18.098029     1.357286   -1.0183231    -9.056026    -27.17962  -0.75818384   -8.0617484            0            0            0   -1.0293436   -1.0894807   -56.283753 
    4800    56.649272    7613.0081    7406.4112    2834.8457    629.87672    1.6934838   -1.0827619   -18.124932   -26.857304  -0.82245619   -18.084282    1.4281341   -1.0440889   -9.0390403   -27.173765  -0.72641667   -8.1628192            0            0            0   -1.0217097   -1.1051927   -56.304146 
    4900    56.649272    7185.8907    7423.4447    2373.5755    635.05129    1.7204323    -1.058766   -18.008736   -26.795612  -0.90944912   -18.163987    1.4493821   -1.0363278   -8.8678859   -27.101646  -0.81110501   -8.1859015            0            0            0   -1.0162314   -1.1165232   -56.309436 
    5000    56.649272    7389.8693    7102.7879    2871.3048    639.71895     1.659665   -1.1092876   -17.999511   -26.827244   -0.9418269   -18.161742    1.3856194   -1.0722781   -8.8225201   -27.118166  -0.90345567   -8.1448292            0            0            0   -1.0233411   -1.1326438   -56.319547 
Loop time of 154.103 on 15 procs for 5000 steps with 6384 atoms

Pair  time (%) = 62.0762 (40.2822)
Neigh time (%) = 0.137712 (0.0893631)
Comm  time (%) = 61.9851 (40.223)
Outpt time (%) = 2.04219 (1.32521)
Other time (%) = 27.8622 (18.0802)

Nlocal:    425.6 ave 658 max 0 min
Histogram: 3 0 0 0 3 0 0 0 3 6
Nghost:    2034.47 ave 3144 max 291 min
Histogram: 3 0 0 1 2 0 1 2 0 6
Neighs:    29523.7 ave 47292 max 0 min
Histogram: 3 0 0 3 0 0 0 0 3 6

Total # of neighbors = 442856
Ave neighs/atom = 69.3697
Neighbor list builds = 79
Dangerous builds = 0


variable  com1_x equal "c_COM1x[1]"
variable  com1_y equal "c_COM1x[2]"
variable  com1_z equal "c_COM1x[3]"
variable  com2_x equal "c_COM2x[1]"
variable  com2_y equal "c_COM2x[2]"
variable  com2_z equal "c_COM2x[3]"
variable  com3_x equal "c_COM3x[1]"
variable  com3_y equal "c_COM3x[2]"
variable  com3_z equal "c_COM3x[3]"
variable  com4_x equal "c_COM4x[1]"
variable  com4_y equal "c_COM4x[2]"
variable  com4_z equal "c_COM4x[3]"
variable  com5_x equal "c_COM5x[1]"
variable  com5_y equal "c_COM5x[2]"
variable  com5_z equal "c_COM5x[3]"
variable  comall_x equal "c_COMall[1]"
variable  comall_y equal "c_COMall[2]"
variable  comall_z equal "c_COMall[3]"


fix          2 all print 100 "${com1_x}   ${com1_y}   ${com1_z}  ${com2_x}   ${com2_y}   ${com2_z} ${com3_x}   ${com3_y}   ${com3_z} ${com4_x}   ${com4_y}   ${com4_z} ${com5_x}   ${com5_y}   ${com5_z} ${comall_x}   ${comall_y}   ${comall_z}" file COM.data screen no
#-------------------------- Wave Propagation -------------------------
unfix        3temp
run          1000000
Setting up run ...
Memory usage per processor = 0.14872 Mbytes
Step Lx Pxx Pyy Pzz Temp COM1x[1] COM1x[2] COM1x[3] COM2x[1] COM2x[2] COM2x[3] COM3x[1] COM3x[2] COM3x[3] COM4x[1] COM4x[2] COM4x[3] COM5x[1] COM5x[2] COM5x[3] COMall[1 COMall[2 COMall[3 
    5000    56.649272    7389.8693    7102.7879    2871.3048    639.71895     1.659665   -1.1092876   -17.999511   -26.827244   -0.9418269   -18.161742    1.3856194   -1.0722781   -8.8225201   -27.118166  -0.90345567   -8.1448292            0            0            0   -1.0233411   -1.1326438   -56.319547 
    5100    56.649272    6610.2914    7164.1602    1844.8232    635.56083    1.6585335   -1.2278164   -17.960502    -26.85274  -0.97657503   -18.138192    1.4170059   -1.2146045   -8.8007156   -27.090646  -0.93351393   -8.0640545            0            0            0   -1.0311002   -1.1499701   -56.327849 
    5200    56.649272    7001.1074    7390.3492    2145.3699    642.04625    1.5801676   -1.2288959   -17.941667    -26.95935   -1.0261226   -18.143417    1.3051205   -1.2128939   -8.7564273   -27.194891   -1.0075739   -8.0045403            0            0            0   -1.0388593   -1.1672964    -56.33615 
    5300    56.649272    6268.2529    6586.9864    1206.4391    649.46821    1.6301869   -1.2851278   -17.860156   -27.026113  -0.97543477     -18.0499    1.4260274   -1.2055035   -8.6765332   -27.242456  -0.90489516    -7.937936            0            0            0   -1.0466185   -1.1846226   -56.344452 
    5400    56.649272     6602.442    6636.7567    641.36581    629.17883    1.6387173   -1.3510904   -17.769128   -27.017718  -0.96127714   -18.020352    1.4507517   -1.2671074   -8.5266891   -27.252571  -0.86736693   -8.0021932            0            0            0   -1.0543776   -1.2019489   -56.352754 
    5500    56.649272    5856.4857    5647.5605   -63.279662    629.91222    1.5317769   -1.4034987   -17.685853   -27.010125   -1.0390226   -18.052648    1.3239589   -1.3483953   -8.4036442   -27.223137  -0.99390457   -8.0604684            0            0            0   -1.0621367   -1.2192751   -56.361056 
    5600    56.649272    5063.6206    4867.0744   -1469.2682    641.92122    1.5311352    -1.420502   -17.632082   -27.016105   -1.0109219   -18.046205     1.363798   -1.3750487   -8.2933279   -27.281612  -0.99849447   -7.9688516            0            0            0   -1.0698958   -1.2366014   -56.369358 
    5700    56.649272    4963.4351    4925.8939   -2063.0816    631.14964    1.4826972   -1.3776924   -17.611762   -27.015804    -1.080349   -17.991615    1.3122462   -1.2940976   -8.2868507   -27.227015  -0.95623361   -7.9050848            0            0            0   -1.0776549   -1.2539277    -56.37766 
    5800    56.649272    4677.0708    4728.3842   -2328.3039    622.79879    1.4770472   -1.3374249   -17.588021   -27.089616   -1.1686588   -17.932061    1.2876386   -1.2102558   -8.2751505   -27.267497  -0.99695825   -7.8376182            0            0            0    -1.085414   -1.2712539   -56.385961 
    5900    56.649272    4170.1063    4028.1801   -2515.0812    631.68007    1.4673797   -1.2623809   -17.573408   -27.123899   -1.2154412   -17.892243    1.2932797   -1.1514421   -8.3357294    -27.33139   -1.0618879   -7.8624431            0            0            0   -1.0931732   -1.2885802   -56.394263 
    6000    56.649272    4426.4556    4210.2791   -2695.2708    628.56674    1.4108927   -1.3286781   -17.639325    -27.10996   -1.2022274   -17.929805    1.2602695   -1.2222974   -8.5105731   -27.312989   -1.0122988   -7.8251883            0            0            0   -1.1009323   -1.3059064   -56.402565 
    6100    56.649272    4900.5903    4916.5541   -2135.6335    635.42251    1.3805612   -1.3162654   -17.763479   -27.111358   -1.1400605   -17.944169    1.1868755    -1.164952   -8.6064103   -27.345869    -1.011317   -7.8205384            0            0            0   -1.1086914   -1.3232327   -56.410867 
    6200    56.649272    4841.7122    4845.3345      -2366.3    630.80446    1.3970664    -1.409121   -17.736286   -27.141981   -1.1351811   -17.971451    1.1527954   -1.2828253   -8.5200181   -27.381033   -1.1237354   -7.8461985            0            0            0   -1.1164505    -1.340559   -56.419169 
    6300    56.649272    4968.2973    4690.5872   -1749.4178     624.4322     1.432058   -1.4735324   -17.748789   -27.186825   -1.1223289   -17.931424    1.2002168   -1.4183143   -8.4908327   -27.464663   -1.0559712   -7.7823769            0            0            0   -1.1242096   -1.3578852    -56.42747 
    6400    56.649272      5429.39    5169.0145   -877.61553    637.23956    1.3887633   -1.3964586    -17.81141   -27.235669    -1.100979   -18.003847    1.1511434    -1.289566   -8.5741448   -27.592805  -0.97939982   -7.9162228            0            0            0   -1.1319687   -1.3752115   -56.435772 
    6500    56.649272    5517.9676    5689.2486    47.486424    639.86964    1.3553285   -1.4106198   -17.835441   -27.205679   -1.1017189   -18.063462    1.1371247   -1.2407829    -8.642161   -27.521857  -0.93503364   -8.0241702            0            0            0   -1.1397279   -1.3925377   -56.444074 
    6600    56.649272     6350.817    6619.6343    929.39822    639.58018    1.3256809   -1.3571696   -17.983739   -27.191205   -1.2064342   -18.181362    1.1377545   -1.1733444   -8.7239695   -27.492489  -0.97877394   -8.1108122            0            0            0    -1.147487    -1.409864   -56.452376 
    6700    56.649272    6773.5788    6760.8572    1101.2483    637.47139    1.3187258   -1.4227909    -18.02195   -27.238679   -1.2470073   -18.335655    1.1193638   -1.2650375   -8.7626486   -27.525338   -1.0480882   -8.3396326            0            0            0   -1.1552461   -1.4271902   -56.460678 
    6800    56.649272    7052.9646    6837.0388    2273.7508    647.36505    1.3146515   -1.3887295   -17.989493   -27.250062   -1.2628683   -18.359053    1.0666191   -1.2200715    -8.830832   -27.501627   -1.1278377   -8.3051015            0            0            0   -1.1630052   -1.4445165    -56.46898 
    6900    56.649272    7784.4439    7157.4984    2519.2687    640.42559     1.266706   -1.4171047   -18.039634   -27.282256   -1.2611199   -18.396579    1.0186385   -1.2695354   -8.9063772     -27.5141   -1.0925483   -8.3561581            0            0            0   -1.1707643   -1.4618428   -56.477281 
    7000    56.649272    7654.7916    7156.1919    2088.7501    646.13831    1.2702143   -1.4375318    -18.11005   -27.251882   -1.1615709   -18.324391     1.035698   -1.2873889   -9.0516297   -27.493419   -1.0272779   -8.3203773            0            0            0   -1.1785234    -1.479169   -56.485583 
    7100    56.649272     7719.373    7433.1202    1984.4855    634.03601    1.2354357   -1.4793087   -18.185425   -27.291678   -1.1694671   -18.350206    1.0730545   -1.3698292   -9.0246803   -27.563083   -1.0347643   -8.3020829            0            0            0   -1.1862826   -1.4964953   -56.493885 
    7200    56.649272    7078.2803    6993.2962    1623.6553    638.29346    1.2770105   -1.5021957   -18.101091   -27.245233   -1.1171866   -18.351484    1.0958512   -1.4840516   -8.9378065   -27.464393   -1.0287071   -8.2541306            0            0            0   -1.1940417   -1.5138215   -56.502187 
    7300    56.649272    7004.3165    6772.0409    1372.2571    638.01941    1.2923945   -1.4829976   -18.110702    -27.24342   -1.1620152   -18.266209    1.0527977   -1.4307276    -8.944994   -27.486708   -1.1294777   -8.2143124            0            0            0   -1.2018008   -1.5311478   -56.510489 
    7400    56.649272    6187.5724    6277.3646    554.04053    637.32587    1.3263373   -1.4162699   -18.040073     -27.2004   -1.2197315    -18.21912    1.0610811   -1.2794403   -8.8573107   -27.482861   -1.2036939   -8.1442658            0            0            0   -1.2095599   -1.5484741   -56.518791 
    7500    56.649272    5833.1465    6221.4686    104.91051    639.29989    1.2867697   -1.4141771   -17.963732     -27.2061   -1.1887262   -18.119156   0.96165067   -1.3064356   -8.7475092   -27.540915   -1.1734458   -8.0536251            0            0            0    -1.217319   -1.5658003   -56.527092 
    7600    56.649272    5658.3993    5462.5233   -654.86749     635.3657    1.3244481   -1.3640706   -17.957155   -27.143107    -1.250504   -18.090805    1.0306948   -1.2885622    -8.691039   -27.419778    -1.239519   -8.0485492            0            0            0   -1.2250782   -1.5831266   -56.535394 
    7700    56.649272    4924.3406    4957.8491   -1214.7618    632.85115    1.3726516   -1.3705192   -17.925198    -27.15968    -1.304212   -18.105028    1.0983323   -1.3059823   -8.6977657   -27.494315   -1.2189598    -8.012904            0            0            0   -1.2328373   -1.6004528   -56.543696 
    7800    56.649272    4486.8402     4185.381   -2427.7664    631.22362    1.3777092   -1.4192708   -17.874835   -27.099202   -1.2437927   -18.060924    1.1676233   -1.3249223   -8.6843219   -27.423581   -1.1173038   -7.9361726            0            0            0   -1.2405964   -1.6177791   -56.551998 
    7900    56.649272    4434.9386    4620.7724   -2287.9746    618.84248    1.4620188    -1.464179   -17.861598   -27.072898   -1.1890065    -18.04881    1.2611784   -1.3069676   -8.6203627   -27.412408  -0.97317446   -7.9116159            0            0            0   -1.2483555   -1.6351054     -56.5603 
    8000    56.649272    4324.5154    4573.5408   -2676.5643    632.96368    1.4716986   -1.4656062    -17.84007   -27.062608   -1.1647597   -18.035916    1.2612543   -1.2728819   -8.6082185   -27.307581  -0.97030148   -7.9574288            0            0            0   -1.2561146   -1.6524316   -56.568601 
    8100    56.649272    4383.5577    4727.4589   -2671.6927    626.03017    1.4583107   -1.5803294   -17.812012   -27.048725   -1.1784077   -18.046462    1.2657696   -1.4349942   -8.6520219   -27.233968  -0.98395646   -7.9742211            0            0            0   -1.2638737   -1.6697579   -56.576903 
    8200    56.649272    4890.3031    4900.8332   -1638.1781    632.15152    1.5071137   -1.5351665   -17.832199   -27.041749   -1.1721199    -18.04645    1.3698063   -1.3544057   -8.6789044   -27.166645  -0.95613825   -7.9989307            0            0            0   -1.2716329   -1.6870841   -56.585205 
    8300    56.649272    5071.4632    4711.7529   -1693.7268    634.39443    1.5200847    -1.508195   -17.919578   -27.088728   -1.2722435   -18.094983    1.4382339   -1.2719629   -8.6835284   -27.212824   -1.0439814   -8.0232508            0            0            0    -1.279392   -1.7044104   -56.593507 
    8400    56.649272    5581.0316    5468.8766   -892.68739    629.78151      1.56599   -1.5169127   -17.965366   -27.043749   -1.2574518    -18.26321    1.4796729   -1.3454033   -8.7145716   -27.185249   -1.0611569   -8.1960891            0            0            0   -1.2871511   -1.7217367   -56.601809 
    8500    56.649272    5936.4352    5924.0937   -359.91654    630.23877     1.519769   -1.5003984   -18.024218   -27.032494     -1.32718   -18.269268    1.4481511   -1.3047059   -8.7968107   -27.137615   -1.1783171   -8.2294346            0            0            0   -1.2949102   -1.7390629   -56.610111 
    8600    56.649272    6160.2645    6250.2311    850.47283    635.12212    1.5089773   -1.4794178   -18.071293   -27.012102   -1.4447822   -18.337118    1.3716374   -1.3401552   -8.8954173   -27.094247   -1.3001753   -8.3230501            0            0            0   -1.3026693   -1.7563892   -56.618412 
    8700    56.649272    7036.9357    6947.7918    2018.9962    629.97399    1.4996262   -1.5966891   -18.110843   -27.013465   -1.3724817   -18.367898    1.3863529   -1.4277107   -8.9082586   -27.136533   -1.1507428   -8.2774912            0            0            0   -1.3104284   -1.7737154   -56.626714 
    8800    56.649272    6965.1547    7069.2466    1575.8672    645.36547    1.5269196   -1.6495165   -18.285692   -27.003205   -1.4027133   -18.389056    1.3964427   -1.4763968   -9.1250088   -27.177178    -1.222001   -8.3430502            0            0            0   -1.3181876   -1.7910417   -56.635016 
    8900    56.649272    7566.2906    7417.3719    2805.5706    644.31369    1.5229006   -1.7360211   -18.370102   -27.030871    -1.452778   -18.420376    1.3674583   -1.5756531   -9.2206733   -27.190282    -1.354951   -8.3643365            0            0            0   -1.3259467    -1.808368   -56.643318 
    9000    56.649272    7331.5504    7252.9116    2006.2303    650.59791    1.4919789   -1.8188196   -18.331002   -27.069961   -1.4470403   -18.459469    1.2616273   -1.6561251   -9.2485869   -27.263122   -1.3011138   -8.5194674            0            0            0   -1.3337058   -1.8256942    -56.65162 
    9100    56.649272    7350.3606    7864.7912     2324.392    638.85236    1.4926715   -1.8682958   -18.336983   -27.044558   -1.5344023   -18.506615    1.2681601    -1.778926   -9.1891219   -27.292523   -1.4938961   -8.5097925            0            0            0   -1.3414649   -1.8430205   -56.659921 
    9200    56.649272    7153.4755    7219.2236    1633.1365    638.22857    1.4353385   -1.8852687   -18.250954    -27.10163   -1.6318473   -18.503821    1.1869314   -1.8571598   -9.1419771   -27.385071   -1.6006107   -8.4285971            0            0            0    -1.349224   -1.8603467   -56.668223 
    9300    56.649272    6832.6648    7014.1384    1086.2083     643.6274    1.4381175   -1.8819343   -18.235124    -27.13698   -1.6315844   -18.500269    1.1761502   -1.8678716   -9.1056132   -27.434717   -1.6013239   -8.4358401            0            0            0   -1.3569831    -1.877673   -56.676525 
    9400    56.649272    6673.1895     6615.603      939.953    637.31027    1.4118219    -1.896736   -18.120522   -27.206136   -1.7555961   -18.482624    1.1814266   -1.8461896   -8.9300113   -27.484704   -1.6822882   -8.4596291            0            0            0   -1.3647423   -1.8949992   -56.684827 
    9500    56.649272     6212.577     6130.828    -231.6395    644.01067    1.3694658   -1.9069429   -18.049273   -27.188775   -1.8462816   -18.415587    1.1733759   -1.8371971     -8.77988   -27.459419   -1.7214758   -8.4478911            0            0            0   -1.3725014   -1.9123255   -56.693129 
    9600    56.649272    5336.8541    5403.9802   -632.91592    638.08133    1.2860301   -2.0772088   -18.025947   -27.166269   -1.8447832   -18.405029    1.0812034   -1.9518152   -8.7869365   -27.379781    -1.760898   -8.4054751            0            0            0   -1.3802605   -1.9296518   -56.701431 
    9700    56.649272    5639.6871    5533.1031   -446.54205    635.79254    1.2429028   -2.0210378   -18.034541   -27.238867   -1.8642896   -18.322313     1.055935   -1.9103151    -8.778626   -27.480418    -1.827975   -8.3003565            0            0            0   -1.3880196    -1.946978   -56.709732 
    9800    56.649272    5143.5914    4837.2864   -1716.2205    634.95736    1.1999931   -2.0639631   -18.044995   -27.262675   -1.8636794   -18.267424     1.006362   -1.9286331   -8.7601598   -27.482999   -1.7506059   -8.1997144            0            0            0   -1.3957787   -1.9643043   -56.718034 
    9900    56.649272    4541.5493    4464.5247   -2525.9771     635.8517    1.2284285   -2.1476517   -18.098512   -27.332642    -1.831298   -18.225508     1.066609   -2.0274132   -8.9010446   -27.552603   -1.6941848   -8.1510407            0            0            0   -1.4035379   -1.9816305   -56.726336 
   10000    56.649272     4875.733     4568.976   -2035.5436    630.14887    1.2390693   -2.2233635   -18.041658   -27.350103   -1.8569149   -18.243913    1.0866248   -2.1520669   -8.8400418   -27.603967   -1.7303329   -8.1095672            0            0            0    -1.411297   -1.9989568   -56.734638 
   10100    56.649272    4436.1707    4632.8721   -2162.4146    640.37418    1.1823717   -2.2088038   -18.038747   -27.370864   -1.8899097   -18.231685    1.0236238   -2.1303108   -8.9271515   -27.561547   -1.8061076   -8.1502764            0            0            0   -1.4190561   -2.0162831    -56.74294 
   10200    56.649272    4543.9692    5085.9992   -1830.5506    632.37965    1.1793884   -2.2103432   -18.052687   -27.388592   -1.8771521   -18.203288   0.97977808   -2.1166755   -8.9178271    -27.58283    -1.779114   -8.1203626            0            0            0   -1.4268152   -2.0336093   -56.751242 
   10300    56.649272    5035.6499    5055.0189   -1631.7382    637.16231    1.0941207    -2.171103   -18.104056   -27.456806   -1.9688827   -18.360156   0.91413719   -2.0432722   -8.9173937   -27.646034   -1.9195241   -8.2721533            0            0            0   -1.4345743   -2.0509356   -56.759543 
   10400    56.649272    5171.8051    5561.2928   -1271.9702    629.79798     1.075445    -2.162214   -18.162534   -27.488106   -1.9878949   -18.377956   0.88536082    -2.046833   -8.9595645    -27.74948   -1.9423003   -8.3525427            0            0            0   -1.4423334   -2.0682618   -56.767845 
   10500    56.649272    5337.0135    5761.1948   -410.27784    627.31418    1.0510716     -2.17454   -18.193524   -27.513122   -1.9960788   -18.407831   0.86669032   -2.1538737   -8.9573469   -27.782255   -1.9804127   -8.4197666            0            0            0   -1.4500926   -2.0855881   -56.776147 
   10600    56.649272    6161.9946    6140.1302    543.64532    636.82922    1.0309714   -2.1471727   -18.261242    -27.44596   -2.0115647    -18.43357   0.81742663   -2.1090328   -9.0505581   -27.744266   -1.9500029   -8.3565507            0            0            0   -1.4578517   -2.1029144   -56.784449 
   10700    56.649272    6567.2645    6517.2942    863.88125    641.59643   0.99614882   -2.1608652   -18.259975   -27.461778   -1.9739214   -18.566302   0.79420764   -2.1282012   -9.0702181   -27.734304   -1.9142203   -8.5324368            0            0            0   -1.4656108   -2.1202406   -56.792751 
   10800    56.649272    6982.4266    6101.4061    659.36485    647.25514   0.93031368   -2.2163255   -18.289795   -27.551738   -1.9749021   -18.662437   0.70058578   -2.1057062   -9.1265687   -27.815348    -1.850507    -8.610413            0            0            0   -1.4733699   -2.1375669   -56.801052 
   10900    56.649272    7621.7824    7447.6833    2069.8902    630.36275   0.93123511   -2.2376901   -18.299378   -27.546837    -1.984335   -18.684806   0.69622448   -2.1254832   -9.2023393   -27.812696    -1.858763   -8.6509568            0            0            0    -1.481129   -2.1548931   -56.809354 
   11000    56.649272    7062.6414    7098.5911     1823.361    645.64825   0.93681031   -2.1820438    -18.37079   -27.617157   -2.0361566   -18.695743   0.67534814   -1.9779165   -9.3094362   -27.905078   -1.8868847    -8.700966            0            0            0   -1.4888881   -2.1722194   -56.817656 
   11100    56.649272    7117.3592    7546.2296    2171.8375    642.42553   0.94152664   -2.2829183   -18.408325   -27.665246   -2.0082047   -18.743372    0.7245479   -2.1107565   -9.3262662   -27.956116   -1.8606258   -8.7497692            0            0            0   -1.4966473   -2.1895457   -56.825958 
   11200    56.649272    6859.3646    6883.7547    2102.5869     647.5517   0.95453768   -2.1895516   -18.502762    -27.69835   -2.0003591   -18.743487   0.75902292   -2.0072844   -9.3632504   -27.945698   -1.8356357   -8.7828574            0            0            0   -1.5044064   -2.2068719    -56.83426 
   11300    56.649272    6650.2473    6927.3052    1259.2524    642.56435   0.96166044   -2.2138365   -18.476293   -27.698946   -1.9543282   -18.673367   0.72436472   -2.0774363   -9.2836634   -27.970479   -1.8620698    -8.688676            0            0            0   -1.5121655   -2.2241982   -56.842562 
   11400    56.649272    6733.6294    6653.6194      863.677    643.03523   0.89001229   -2.1483752   -18.422781   -27.646239    -1.959678   -18.520532   0.67720798   -2.0361857   -9.2702113   -27.903964   -1.8172041   -8.5852326            0            0            0   -1.5199246   -2.2415244   -56.850863 
   11500    56.649272    6524.5639    6975.9507    549.49772    633.64038   0.94610388   -2.1952067   -18.362038   -27.615679   -1.9785903   -18.460259   0.68428199   -2.1119647    -9.176048   -27.872967   -1.8617288   -8.4262954            0            0            0   -1.5276837   -2.2588507   -56.859165 
   11600    56.649272     5756.183    5655.5716   -355.32375    642.72169   0.93944815   -2.1368978   -18.314073   -27.612717   -1.9334077   -18.491534    0.6888363   -2.0406729   -9.1145209   -27.868508   -1.8558453   -8.4391928            0            0            0   -1.5354428    -2.276177   -56.867467 
   11700    56.649272       5649.3    5602.9978   -856.31325    631.38549    0.9524295   -2.0889455   -18.293393    -27.56652    -1.872134   -18.544753    0.7196399   -2.0025455   -9.1211822   -27.892432   -1.7564995    -8.507876            0            0            0    -1.543202   -2.2935032   -56.875769 
   11800    56.649272    5223.5388    5287.7171   -1188.2491    635.01367    1.0026175   -2.1301061   -18.264774   -27.508022   -1.8799754   -18.505546   0.78760382   -1.9949346   -9.1400934   -27.846491   -1.8085796   -8.4314202            0            0            0   -1.5509611   -2.3108295   -56.884071 
   11900    56.649272    4905.4627    4879.9148   -1806.3879    637.80557   0.99227594   -2.1713072   -18.184202   -27.507981   -1.8724945   -18.382345   0.77014127   -2.0184018   -9.0537536    -27.80492   -1.8127598   -8.3065242            0            0            0   -1.5587202   -2.3281557   -56.892372 
   12000    56.649272    4589.1931     4863.761   -2138.0776    630.94899    1.0221398   -2.1992346   -18.174907   -27.453922   -1.9614955    -18.42398   0.79901125   -2.1155481   -8.9983396    -27.69553   -1.8398378   -8.3842171            0            0            0   -1.5664793    -2.345482   -56.900674 
   12100    56.649272    4899.4215    4783.4743   -2134.7985    630.39592    1.1188418   -2.1231422   -18.174055   -27.497279   -1.9541067   -18.387024   0.89255244   -1.9820436   -8.9454155   -27.708027   -1.7550937   -8.2816782            0            0            0   -1.5742384   -2.3628082   -56.908976 
   12200    56.649272    5147.7865    5449.5367   -1555.0536    631.39315    1.2016369   -2.0709332   -18.230551   -27.484164   -1.8899936   -18.442164    0.9673449   -1.8486161   -9.0652051   -27.683454   -1.6411947   -8.4354711            0            0            0   -1.5819976   -2.3801345   -56.917278 
   12300    56.649272    4888.4936    5357.8222   -1531.0411    631.31304     1.167038   -2.0759068   -18.292011    -27.44507   -1.9560873   -18.474907   0.98926744   -1.8814982   -9.1275129   -27.619604   -1.6957323   -8.4467498            0            0            0   -1.5897567   -2.3974608    -56.92558 
   12400    56.649272    4785.3471    4710.4315   -1956.8299    644.59488    1.1677617   -2.1593833   -18.368513   -27.378164   -2.0035437   -18.497508    1.0009851   -1.9250251   -9.1531079   -27.575147   -1.8202317   -8.4799771            0            0            0   -1.5975158    -2.414787   -56.933882 
   12500    56.649272    5274.2955    5410.5557   -303.87004    637.32719    1.2315615   -2.1869885   -18.393954   -27.239254   -2.0214041   -18.541669    1.1091775   -1.9523023   -9.2282512   -27.430418   -1.8236609    -8.515268            0            0            0   -1.6052749   -2.4321133   -56.942183 
   12600    56.649272    5960.3778    5833.9757   -366.71858    637.31234    1.1792669   -2.1687358   -18.435679   -27.262659   -1.9654273   -18.581525    1.0112579   -1.9764742   -9.2911999   -27.453916    -1.715082   -8.5470528            0            0            0    -1.613034   -2.4494395   -56.950485 
   12700    56.649272    6223.5155    6098.8387    756.10074    641.74082    1.2278135   -2.2235134   -18.493436   -27.248878   -1.9375148   -18.606384    1.0759207   -1.9990668   -9.2977677   -27.383047   -1.7617205   -8.5623619            0            0            0   -1.6207931   -2.4667658   -56.958787 
   12800    56.649272    6721.6902     6429.897    796.18923    643.62423    1.2186799   -2.2746724     -18.5037   -27.299013   -1.9430552   -18.700475    1.1055205   -2.1209343    -9.385981   -27.468572   -1.7924943   -8.7136081            0            0            0   -1.6285523   -2.4840921   -56.967089 
   12900    56.649272    6680.1754    6832.5718    1467.5311    650.49821    1.2300465   -2.3532639   -18.537953   -27.256709   -2.0789398   -18.842624    1.1517479   -2.2259078   -9.4416764    -27.39116   -1.9587546   -8.8955412            0            0            0   -1.6363114   -2.5014183   -56.975391 
   13000    56.649272      7242.88      7464.94     2317.087    639.33549    1.2366846   -2.3286721   -18.575659   -27.288667   -2.1099503   -18.910644    1.1355604   -2.2372589   -9.4410601   -27.434752   -1.9849099   -8.9897311            0            0            0   -1.6440705   -2.5187446   -56.983692 
   13100    56.649272    7394.8675    7311.7695    2468.8636    637.14249    1.2680736   -2.3200924   -18.601247   -27.335135   -2.1574817   -18.923874    1.2030037   -2.2104007   -9.4745504   -27.463554    -2.014738   -8.9078625            0            0            0   -1.6518296   -2.5360708   -56.991994 
   13200    56.649272    7254.3144    7137.8129    1935.3187    647.70651    1.2689966   -2.3738036   -18.535274   -27.367638   -2.2419145   -18.931271    1.1573894    -2.288391   -9.3829206   -27.539346   -2.1444923   -8.9894184            0            0            0   -1.6595887   -2.5533971   -57.000296 
   13300    56.649272    7129.2602    6925.0062    1667.1482    642.24047    1.2225191   -2.4686254   -18.474939   -27.350261   -2.3004656   -18.882827    1.0614792   -2.3258123   -9.3303762   -27.524122   -2.2142118   -8.9609892            0            0            0   -1.6673478   -2.5707234   -57.008598 
   13400    56.649272    7145.6547    6799.7437    1330.2581    640.28238    1.1600816   -2.5687419   -18.607341   -27.323304   -2.3105166   -18.830672    0.9621968   -2.4953982   -9.5191973   -27.508772   -2.2235196   -8.8480457            0            0            0    -1.675107   -2.5880496     -57.0169 
   13500    56.649272    6866.8867    6285.7139    774.43367    633.49307    1.0990808   -2.6126107   -18.551042   -27.375134   -2.3028777   -18.806952   0.87036834   -2.4941297    -9.447905   -27.553931   -2.2245265   -8.7442465            0            0            0   -1.6828661   -2.6053759   -57.025202 
   13600    56.649272    6079.5823    5839.4634   -94.793246    637.40811     1.108968   -2.6357141   -18.559742    -27.42882   -2.2920077   -18.696646   0.88418415   -2.4949831    -9.399054    -27.63198   -2.2001078   -8.7051199            0            0            0   -1.6906252   -2.6227021   -57.033503 
   13700    56.649272    5826.0771    5291.5564   -942.43106    638.79461    1.0569626   -2.6967315   -18.548211   -27.493978   -2.4213909   -18.674406   0.85430825   -2.6022445   -9.3588355   -27.763813   -2.2962852   -8.6878889            0            0            0   -1.6983843   -2.6400284   -57.041805 
   13800    56.649272    5341.0179    5325.4416   -1166.0947    634.80579    1.0207174    -2.750894   -18.435889   -27.504519   -2.5510386   -18.581795    0.8243952   -2.6459792   -9.2979204   -27.833488   -2.4878081   -8.4816228            0            0            0   -1.7061434   -2.6573547   -57.050107 
   13900    56.649272    4991.7353    4977.2446   -1176.0308    643.12262   0.95976173   -2.7962483   -18.418309   -27.537022   -2.6042211   -18.516176   0.74167743   -2.6975529   -9.2597272   -27.841218    -2.509163   -8.4857357            0            0            0   -1.7139025   -2.6746809   -57.058409 
   14000    56.649272    4582.3517    4811.5911   -1923.8546    632.19332   0.96016984   -2.7272675   -18.387057   -27.540774   -2.6422206   -18.617163   0.73316245   -2.5668746   -9.2021621   -27.773162   -2.4971906    -8.611894            0            0            0   -1.7216617   -2.6920072   -57.066711 
   14100    56.649272     4965.955    4990.4199   -1724.0687    626.60582   0.91073316   -2.7175867   -18.370254   -27.640393   -2.6304006   -18.580686   0.66558151   -2.5834725   -9.1499795    -27.87384   -2.5391842    -8.575455            0            0            0   -1.7294208   -2.7093334   -57.075013 
   14200    56.649272    4844.1452    4270.2907   -2178.1346    636.91595   0.87248901   -2.8014463   -18.384077   -27.678725   -2.6393762   -18.656237   0.66372101    -2.727432   -9.2127414   -27.858875   -2.5561991   -8.6207955            0            0            0   -1.7371799   -2.7266597   -57.083314 
   14300    56.649272    4783.5338    4545.1006   -1650.7529    635.89245   0.81264338   -2.8592142   -18.405711   -27.701889   -2.6945832   -18.670949   0.62697869    -2.752525    -9.277575   -27.879292   -2.6243802   -8.5724224            0            0            0    -1.744939    -2.743986   -57.091616 
   14400    56.649272    5821.8539    5215.2006   -797.74582    628.28862   0.77901822   -2.9202027   -18.295526   -27.790343   -2.7150789   -18.705758   0.61081008   -2.7998772   -9.1481215   -27.979975   -2.5624169   -8.7190648            0            0            0   -1.7526981   -2.7613122   -57.099918 
   14500    56.649272    5945.4353     5518.151   -372.64439    630.03543   0.78063653   -2.9494695   -18.423907   -27.786485   -2.6572731   -18.728412   0.62245706   -2.8692527   -9.2987435   -27.941885   -2.4916386   -8.7234168            0            0            0   -1.7604573   -2.7786385    -57.10822 
   14600    56.649272    5917.7428    5792.4572   -526.88936    634.75374   0.73791884   -2.9623095   -18.592113   -27.798867   -2.6418324   -18.789951   0.54105319   -2.8827814   -9.4637534   -28.009985   -2.5497941   -8.7605573            0            0            0   -1.7682164   -2.7959647   -57.116522 
   14700    56.649272    6262.8528    6077.7479    153.26056    634.51387   0.68319609   -2.9509307   -18.714658   -27.826869   -2.6422418   -18.814242   0.48127121   -2.8584452   -9.5826216   -28.064495   -2.5609387   -8.7654464            0            0            0   -1.7759755    -2.813291   -57.124823 
   14800    56.649272    6918.6351    6608.3473    636.66462    632.53114   0.67857265   -2.9810121   -18.666737   -27.818236   -2.7197089    -18.82472   0.47093135   -2.8932777   -9.4878865   -28.028163   -2.6844673   -8.8039843            0            0            0   -1.7837346   -2.8306172   -57.133125 
   14900    56.649272    6597.6625    6577.1151    1536.1149    646.83446   0.68552297   -2.9643106   -18.717434   -27.878708   -2.7874137   -18.861494    0.4689687     -2.83583   -9.6256908   -28.131272   -2.7199045   -8.9292105            0            0            0   -1.7914937   -2.8479435   -57.141427 
   15000    56.649272    6982.3726    6838.8045      1472.91    642.27307   0.65525968   -2.8822071   -18.836828   -27.894812   -2.7999497   -18.819542   0.44528368   -2.7711617   -9.7196683   -28.190378   -2.7445774   -8.8404029            0            0            0   -1.7992528   -2.8652698   -57.149729 
   15100    56.649272    6878.2669    6641.8468    1649.5944    651.87655   0.60809087   -2.8700973   -18.821686   -27.913677   -2.7691719   -18.919809   0.35109044   -2.7432385   -9.7057227    -28.22221   -2.6446328    -8.878008            0            0            0    -1.807012    -2.882596   -57.158031 
   15200    56.649272    7000.0322    7349.8206    1686.4765    647.30251   0.56190991   -2.9190622   -18.811575   -27.953812   -2.7753102   -19.016726   0.31694035   -2.8213078    -9.697397   -28.215166   -2.6436456   -9.0477156            0            0            0   -1.8147711   -2.8999223   -57.166333 
   15300    56.649272    7132.7512    7071.6388    1916.7144    639.81606   0.57074932   -2.9986497   -18.778099   -27.953434   -2.7334063   -18.991636   0.31742523   -2.8513517   -9.7114704   -28.226937    -2.585299   -9.0274228            0            0            0   -1.8225302   -2.9172485   -57.174634 
   15400    56.649272    7022.5829    6757.3415    1105.2537    636.65869   0.58019253   -3.0460034   -18.753629   -27.941986   -2.6866084   -18.948384   0.33773122   -2.9254782   -9.6820548   -28.160914   -2.5084314    -8.950328            0            0            0   -1.8302893   -2.9345748   -57.182936 
   15500    56.649272    6534.5331    6912.1691    781.18078    642.36477   0.58232809   -3.0233967   -18.676489   -27.987197   -2.6379114   -18.962029   0.30859661    -2.883272   -9.5459114   -28.273639   -2.5002686   -8.9442715            0            0            0   -1.8380484   -2.9519011   -57.191238 
   15600    56.649272    6267.2381    6280.4081    454.38363    640.73312   0.60313183   -2.9560561   -18.596259   -27.976103   -2.6508731   -18.939597   0.35039668   -2.8094369   -9.3965851   -28.306063   -2.5488913    -8.990207            0            0            0   -1.8458075   -2.9692273    -57.19954 
   15700    56.649272    6178.6441    5876.8433     50.48835    639.99834   0.62456141   -2.9763825   -18.570339   -27.915016   -2.7164771   -18.910446    0.4385192   -2.8861578    -9.384726   -28.253271   -2.6371131    -8.955517            0            0            0   -1.8535667   -2.9865536   -57.207842 
   15800    56.649272    6048.4711    5741.3447   -715.95136    635.22139   0.59598746   -2.8790163   -18.611766   -27.899496   -2.7240904   -18.887294   0.39680602   -2.7580817   -9.4408928   -28.223718   -2.6335112   -8.9240334            0            0            0   -1.8613258   -3.0038798   -57.216143 
   15900    56.649272    5386.6153    5400.0379   -906.71116    633.73625   0.63281164   -2.8613821   -18.579734   -27.890078   -2.7372364   -18.831296   0.39364168   -2.7723741    -9.434165   -28.165214   -2.7171022   -8.8911901            0            0            0   -1.8690849   -3.0212061   -57.224445 
   16000    56.649272     5006.976    5307.7606   -1926.0108    640.60772   0.69802942   -2.8033822   -18.545659   -27.896169   -2.7050763   -18.826477   0.42502784   -2.7455499   -9.4054522   -28.139518   -2.6330398   -8.7905515            0            0            0    -1.876844   -3.0385324   -57.232747 
   16100    56.649272    5031.9184    5085.5464   -1844.7504    630.45122    0.7378318   -2.8565654   -18.533269   -27.831679   -2.6375653   -18.758534   0.47473419   -2.7415276   -9.3992386   -28.024182   -2.6224785   -8.7076708            0            0            0   -1.8846031   -3.0558586   -57.241049 
   16200    56.649272    5035.4688    5356.4818   -1882.0291    627.89385   0.70707367   -2.9161946   -18.586157   -27.742603   -2.6461624   -18.712658   0.50956057   -2.7951808   -9.4375639   -27.928756   -2.5875483    -8.671669            0            0            0   -1.8923622   -3.0731849   -57.249351 
   16300    56.649272     4988.364    4757.6148   -1800.9339    636.32653   0.74938394   -2.8912285   -18.615683   -27.751611    -2.682783   -18.749556   0.63324583   -2.7842282   -9.4925828   -27.953832   -2.4939434   -8.7086742            0            0            0   -1.9001214   -3.0905111   -57.257653 
   16400    56.649272    5034.8783    5453.9484   -1015.1207    631.52552   0.86913225   -2.9212973   -18.628875   -27.755442   -2.6494781   -18.799927   0.77698167   -2.8114028   -9.4946629   -27.976291   -2.4503012   -8.7606843            0            0            0   -1.9078805   -3.1078374   -57.265954 
   16500    56.649272    5358.5183    5162.6828    -782.0169    633.02356   0.86495771   -2.9043509   -18.654841   -27.740551   -2.7055575   -18.936088   0.76342257   -2.7502844   -9.5497375   -27.942132   -2.4722751   -8.9646242            0            0            0   -1.9156396   -3.1251637   -57.274256 
   16600    56.649272    5545.2077    5710.3762   -383.56279    638.72938   0.87125635   -2.8672092   -18.729783   -27.639082    -2.669802     -18.9051   0.70088423    -2.654407   -9.5457745    -27.79884   -2.4821927   -8.8915171            0            0            0   -1.9233987   -3.1424899   -57.282558 
   16700    56.649272    5928.0424    6070.6083   -106.55524      632.132   0.86908613   -2.9352235   -18.696503   -27.560215   -2.7191967   -18.996782   0.68845112   -2.6641997   -9.4946685   -27.667627   -2.5518952   -8.9952099            0            0            0   -1.9311578   -3.1598162    -57.29086 
   16800    56.649272     6527.972    6363.1448    773.94948    636.47579   0.90742864   -2.9093723   -18.687286    -27.56177   -2.7311797   -19.002342    0.7185978   -2.7014214   -9.5610195   -27.697228   -2.5791327    -8.996145            0            0            0    -1.938917   -3.1771424   -57.299162 
   16900    56.649272    7215.6705    7081.1114    1238.0914     636.3164    0.9890643   -2.9618354   -18.779399    -27.59708    -2.719777   -19.059902    0.8543529    -2.802764   -9.6810282   -27.696134   -2.5167189   -9.1329301            0            0            0   -1.9466761   -3.1944687   -57.307463 
   17000    56.649272    7316.5321    7208.2879    1846.9137    636.26665   0.96416434    -3.016323   -18.866492   -27.590954   -2.7602614   -19.138793   0.84972497   -2.9016588   -9.7950956   -27.748516    -2.567026   -9.1967658            0            0            0   -1.9544352    -3.211795   -57.315765 
   17100    56.649272    6999.3933    7002.8757    1828.6861    634.85722   0.99818289   -3.0211857    -18.85028   -27.606138   -2.7580717   -19.214331   0.92631593   -2.9218746   -9.7737382    -27.77968   -2.6081499    -9.245896            0            0            0   -1.9621943   -3.2291212   -57.324067 
   17200    56.649272    7365.9059    7240.5568    1790.4108    637.07988    0.9285996   -3.0839655   -18.843064   -27.609544   -2.8345015   -19.158151   0.84496025   -2.9511649   -9.7441128   -27.801912   -2.6618348   -9.1820678            0            0            0   -1.9699534   -3.2464475   -57.332369 
   17300    56.649272    6603.3151    7039.2068    1372.3504    652.28918   0.90904547   -3.1060839   -18.919994   -27.571643   -2.8722676   -19.083929   0.78400045   -2.9742664   -9.7266685   -27.712159   -2.7796083     -9.12064            0            0            0   -1.9777125   -3.2637737   -57.340671 
   17400    56.649272    7039.1257    6697.8251     1511.083    631.43268   0.85229699    -3.138559   -18.931176   -27.629032   -2.9221484   -19.079735   0.70177768   -3.0208355   -9.8425886   -27.767533   -2.8372736   -9.0779148            0            0            0   -1.9854717      -3.2811   -57.348973 
   17500    56.649272    7073.7562    6718.1349    1092.9782    633.43242   0.87035008   -3.1731484   -18.900847   -27.677603   -3.0160934   -19.071239   0.70340763   -3.0578384   -9.7842482   -27.821427   -2.9173978   -9.1180215            0            0            0   -1.9932308   -3.2984262   -57.357274 
   17600    56.649272    6454.5763    6128.6171     656.4774    644.93156   0.84936383   -3.2514403   -18.942938   -27.736886   -3.0631848    -19.04146   0.72480394   -3.1014598   -9.8518443   -27.976092   -3.0138973   -9.1189537            0            0            0   -2.0009899   -3.3157525   -57.365576 
   17700    56.649272    6233.1172    6439.6665    264.51209    645.00259   0.79686216   -3.2666272   -18.915688   -27.767323   -3.0769402   -19.046267   0.60555427   -3.1921335   -9.8478881   -28.009407   -3.0015412   -9.0545224            0            0            0    -2.008749   -3.3330788   -57.373878 
   17800    56.649272    5567.2132      5757.07   -811.73618    639.36253   0.75373255   -3.3580372   -18.856148   -27.733751   -3.1134444   -18.956933   0.49996924   -3.3076514   -9.7122253   -27.979731    -3.029749      -8.8961            0            0            0   -2.0165081    -3.350405    -57.38218 
   17900    56.649272    5308.0828    5240.6148   -1486.7102    639.00567   0.69577428   -3.3898307    -18.81797   -27.830775   -3.1464044   -18.996402   0.47147504   -3.3136635   -9.6925069   -28.140092   -3.0576977   -8.9482844            0            0            0   -2.0242672   -3.3677313   -57.390482 
   18000    56.649272    5226.6377    5222.7833   -1099.8695    628.80681   0.68722165   -3.4649009   -18.757397   -27.900039   -3.1855984   -18.952654   0.41934507   -3.3850409   -9.6425566   -28.215656   -3.0897168   -8.9044965            0            0            0   -2.0320264   -3.3850575   -57.398784 
   18100    56.649272    5253.3003    5270.7397   -1259.8888    629.48252   0.63613588   -3.4663212   -18.679194   -27.901581    -3.228516   -18.980064   0.35580506   -3.3429275   -9.5427136   -28.193293   -3.1586876   -8.9618128            0            0            0   -2.0397855   -3.4023838   -57.407085 
   18200    56.649272    5522.8017    5190.6021   -986.92566    630.98122    0.5793648   -3.4651548   -18.750727   -27.955307   -3.2635461   -19.052013   0.28402687   -3.3747966   -9.6043374   -28.277582   -3.2063983   -9.0443942            0            0            0   -2.0475446   -3.4197101   -57.415387 
   18300    56.649272    5188.7452    4905.9184   -1759.6067    630.04316   0.55038978   -3.5644062   -18.697124   -27.960212   -3.2742178   -19.050113   0.28587622   -3.4895756   -9.4966387   -28.269143   -3.1932324    -9.037509            0            0            0   -2.0553037   -3.4370363   -57.423689 
   18400    56.649272    5320.7404    5340.5321    -1548.401    634.44837   0.47345083   -3.5497637   -18.701539   -27.969328   -3.3988532    -19.05906   0.23954747   -3.4591115   -9.5295093   -28.197576   -3.2813472   -9.0900995            0            0            0   -2.0630628   -3.4543626   -57.431991 
   18500    56.649272    5706.4792    5994.4689   -823.94031    637.73416   0.43705661   -3.5058815   -18.720363   -28.049227   -3.3818618   -19.091303   0.21238334   -3.4246195   -9.5275418   -28.311607   -3.2428271   -9.1440758            0            0            0   -2.0708219   -3.4716888   -57.440293 
   18600    56.649272    5644.9199    5731.8316   -306.43105    635.39258   0.47037006    -3.554132   -18.798315   -28.032114   -3.3659738   -19.095794   0.28928368   -3.4776581   -9.6621416   -28.286922   -3.2541049   -9.1140433            0            0            0   -2.0785811   -3.4890151   -57.448594 
   18700    56.649272    5980.4439    5349.1066   -730.84451    644.45099   0.46629542   -3.6211618   -18.969491    -28.11807    -3.417614   -19.119758   0.27099053   -3.5070844   -9.7988466   -28.364612   -3.3281035   -9.1366244            0            0            0   -2.0863402   -3.5063414   -57.456896 
   18800    56.649272    6024.7282    5880.0826    -194.1088    643.55973   0.42923154   -3.6054209   -19.041329   -28.142528   -3.4228028   -19.159263   0.24847901   -3.5149566   -9.9370798    -28.36543    -3.301069   -9.1274633            0            0            0   -2.0940993   -3.5236676   -57.465198 
   18900    56.649272    7032.9676    6428.0988    634.77519    638.82081   0.40144289   -3.6826296   -19.068516   -28.108214    -3.353626   -19.151874   0.22044198   -3.5476777    -9.989188   -28.309545   -3.3634587   -9.1518245            0            0            0   -2.1018584   -3.5409939     -57.4735 
   19000    56.649272    6824.8042    6641.7367    1451.9238    647.09113   0.34190478   -3.6568328   -19.124761   -28.141604   -3.3539948   -19.179892     0.151641   -3.5053409   -10.099003    -28.33265   -3.3121851   -9.1427693            0            0            0   -2.1096175   -3.5583201   -57.481802 
   19100    56.649272    7004.7877    6759.3286    961.07321     642.6821    0.3368241   -3.6706506   -19.070228   -28.220188   -3.3709192    -19.17898   0.11871455   -3.5703989   -10.032698   -28.396774   -3.2629466    -9.186567            0            0            0   -2.1173767   -3.5756464   -57.490104 
   19200    56.649272    6800.4803    7029.4751    1018.4027    639.27311   0.31572686   -3.6651104   -19.074013   -28.196895   -3.4158197    -19.27274     0.128553   -3.5802568   -9.9721425    -28.39571   -3.3064416   -9.2841297            0            0            0   -2.1251358   -3.5929727   -57.498405 
   19300    56.649272    6760.3847    6977.4818    1544.5512    643.68575   0.29397676   -3.6675715   -19.086731   -28.227576   -3.4362543   -19.284536  0.083864987   -3.5786513   -9.9517029   -28.523127   -3.3024915   -9.3058219            0            0            0   -2.1328949   -3.6102989   -57.506707 
   19400    56.649272    6680.0856    7068.7508    1402.4208    632.96318    0.3033633   -3.6711258   -19.047141   -28.262915    -3.452992   -19.332701  0.085095967   -3.5512188   -9.9037255    -28.58629   -3.2978685    -9.408504            0            0            0    -2.140654   -3.6276252   -57.515009 
   19500    56.649272    6469.1083    6755.9194    933.87547     632.3984   0.27844504   -3.6857457   -19.031446   -28.264432   -3.4359761   -19.304586  0.023636227   -3.5035844   -9.8678739   -28.555203   -3.3129748   -9.3737629            0            0            0   -2.1484131   -3.6449514   -57.523311 
   19600    56.649272     6269.058    6401.4611    394.76424    637.55018   0.21449993   -3.7141267   -18.961672   -28.286038    -3.506441    -19.28149 -0.063513008   -3.5561226   -9.8036138   -28.584581   -3.3328187   -9.3194103            0            0            0   -2.1561722   -3.6622777   -57.531613 
   19700    56.649272    6192.6926    5856.7778    85.959557    643.72216   0.23716597   -3.6674133   -18.954347   -28.275043   -3.4664156   -19.250031 -0.050112499   -3.5019315   -9.8188342   -28.602417   -3.3681527   -9.2451141            0            0            0   -2.1639314    -3.679604   -57.539914 
   19800    56.649272     6065.855    5897.8303   -120.85447    643.43158   0.21097222   -3.6605326   -18.874196    -28.29247   -3.4653786   -19.280749   -0.1141415   -3.5306976   -9.7346323   -28.640091   -3.3345534   -9.2370993            0            0            0   -2.1716905   -3.6969302   -57.548216 
   19900    56.649272    5539.9588     5772.481   -1016.8539     641.4799   0.24859803   -3.6999131   -18.970101   -28.296915   -3.5159423   -19.200248 -0.063427695   -3.5906037   -9.8401137   -28.586908   -3.3930689   -9.1535362            0            0            0   -2.1794496   -3.7142565   -57.556518 
   20000    56.649272    5383.8861    5465.3359    -1391.662    633.57488   0.28856159   -3.7409855   -19.013713   -28.305607   -3.4558243   -19.191049  0.056332516   -3.6422808    -9.931212   -28.631209   -3.3514801   -9.2060074            0            0            0   -2.1872087   -3.7315827    -57.56482 
   20100    56.649272    5724.6127     5605.649   -311.03438    626.14077   0.27331208     -3.72016   -18.943441   -28.275881   -3.4433507   -19.129997  0.045365142   -3.6779328   -9.8233295   -28.586631   -3.3530781   -9.1226501            0            0            0   -2.1949678    -3.748909   -57.573122 
   20200    56.649272    5323.0406    5036.1925   -1251.3397    642.62454   0.27504337   -3.7178742   -18.918412   -28.259157   -3.4237867   -19.153327  0.054830621   -3.6237909   -9.7712258   -28.564367   -3.4087104    -9.146656            0            0            0   -2.2027269   -3.7662352   -57.581424 
   20300    56.649272    4908.1893    5328.0164   -1363.5982     635.8804   0.33098171   -3.6848771   -18.974313   -28.240728   -3.4264904   -19.100673   0.12936855   -3.6040708   -9.7785823    -28.52639   -3.3725012   -9.0831664            0            0            0   -2.2104861   -3.7835615   -57.589725 
   20400    56.649272    5100.0156    5281.4542   -1688.1626    634.98689   0.37499931   -3.6383747   -18.971113    -28.16844   -3.4722751   -19.167021   0.18186664   -3.6068244   -9.7539609   -28.364811    -3.359063   -9.1827982            0            0            0   -2.2182452   -3.8008878   -57.598027 
   20500    56.649272     5186.542    5240.8807   -1006.0412    640.55079   0.34748677   -3.6902193   -18.988693   -28.134936    -3.498234   -19.248914   0.16647742   -3.6184553   -9.8438716   -28.286143   -3.4386984   -9.2520446            0            0            0   -2.2260043    -3.818214   -57.606329 
   20600    56.649272    5818.0226    5986.7822   -572.76947    641.90519   0.40437191   -3.6874672   -18.943381   -28.118686   -3.4559294   -19.316988   0.19468424   -3.5564314    -9.798459    -28.31214   -3.3096497   -9.3585371            0            0            0   -2.2337634   -3.8355403   -57.614631 
   20700    56.649272    5829.9636    5880.1721   -527.49229    637.88058   0.41703096   -3.6793011    -19.04848   -28.098282   -3.4410561   -19.289341    0.1931458   -3.5197788   -9.9113574   -28.298983   -3.3072053    -9.322489            0            0            0   -2.2415225   -3.8528665   -57.622933 
   20800    56.649272    6270.4279    6459.7587    444.12793    629.70499   0.51209353   -3.7005898    -19.06633   -28.061178   -3.4390654   -19.363356   0.34791631   -3.5208042   -9.9265367   -28.256662   -3.3836781    -9.386574            0            0            0   -2.2492816   -3.8701928   -57.631234 
   20900    56.649272    6123.1054    6405.0583   -210.44917    645.79377   0.51413731   -3.7133383   -19.119294   -28.018217   -3.4789874   -19.392113   0.40293321   -3.5629073   -9.9952032   -28.245181    -3.317188   -9.3421672            0            0            0   -2.2570408   -3.8875191   -57.639536 
   21000    56.649272    6623.4651    7159.5828     588.9502    647.97859   0.51993907   -3.6922651   -19.196138   -27.995154   -3.5055839   -19.427965   0.41825499   -3.5313276   -10.113238   -28.204795    -3.354072   -9.4364091            0            0            0   -2.2647999   -3.9048453   -57.647838 
   21100    56.649272    6233.7677    6721.3332    954.12641    648.10596   0.56049185   -3.6921957   -19.205934   -27.958786   -3.5169713   -19.399371   0.39110655   -3.5181277   -10.127878   -28.152206   -3.3328025   -9.4183704            0            0            0    -2.272559   -3.9221716    -57.65614 
   21200    56.649272     6736.175    7054.0789    1282.0916     649.4671   0.56441359   -3.7051274   -19.312003   -27.974962   -3.4630906   -19.450192   0.38387729   -3.5837075   -10.197893   -28.179129   -3.3134061   -9.4760409            0            0            0   -2.2803181   -3.9394978   -57.664442 
   21300    56.649272    6868.6774    6899.9058    1025.3895    646.94025   0.57249366   -3.7212352   -19.318539   -27.915991   -3.4648887   -19.411951   0.40413353   -3.5309459   -10.195274   -28.044653   -3.3363239    -9.440902            0            0            0   -2.2880772   -3.9568241   -57.672744 
   21400    56.649272    7116.7124    6762.6238    1275.2362     645.9001   0.55979856   -3.8155477   -19.228308   -27.970435   -3.4970554   -19.436756   0.41392537   -3.6256572    -10.07271   -28.090898    -3.304969    -9.485983            0            0            0   -2.2958364   -3.9741504   -57.681045 
   21500    56.649272    6518.7721    6412.2478    803.52253    647.18911   0.60816345   -3.8320664   -19.259793   -27.991283   -3.5557597   -19.430587    0.5062897   -3.6035872   -10.164544    -28.11629   -3.3024515   -9.5039462            0            0            0   -2.3035955   -3.9914766   -57.689347 
   21600    56.649272    6546.7369    6431.1513    283.37803    635.22503   0.55042446   -3.8189011   -19.167843    -28.03113   -3.6234125   -19.471706   0.46617115   -3.6595228   -10.102359   -28.207846   -3.4611033    -9.535202            0            0            0   -2.3113546   -4.0088029   -57.697649 
   21700    56.649272    6239.0957    6093.8575   -120.25731     640.4926   0.51820516   -3.8550189    -19.19706    -28.03197   -3.6624353   -19.540603   0.44496684   -3.7321654   -10.001143   -28.179874   -3.4799608   -9.5933492            0            0            0   -2.3191137   -4.0261291   -57.705951 
   21800    56.649272    6195.2045     6081.502   -134.97808    641.61871   0.45679819   -3.8516164   -19.127097   -28.031167   -3.7164254   -19.474136   0.31667429   -3.7054012   -10.010326   -28.184061   -3.5761994   -9.4693577            0            0            0   -2.3268728   -4.0434554   -57.714253 
   21900    56.649272    6005.5212    6051.8384    188.72063     640.0148   0.41004613    -3.902992   -19.132769   -28.083421   -3.7079557   -19.416773   0.21306514   -3.7521123   -10.014315    -28.25197   -3.5260774    -9.414935            0            0            0   -2.3346319   -4.0607817   -57.722555 
   22000    56.649272    5294.5531    5303.6693   -1290.3065    637.21861   0.43306662   -3.9433359   -19.036249   -28.090098   -3.7424538   -19.353661   0.22936505   -3.7926898   -9.8935235   -28.270008   -3.6316706   -9.3592304            0            0            0   -2.3423911   -4.0781079   -57.730856 
   22100    56.649272     5176.855    5289.7059   -1191.9962    645.92811   0.35838137   -4.0687113   -19.045455    -28.15418   -3.8162978   -19.281079    0.1969051   -3.9051875   -9.9306376   -28.387453   -3.7391503   -9.3247913            0            0            0   -2.3501502   -4.0954342   -57.739158 
   22200    56.649272      5308.02     5629.799   -923.27076    630.24698   0.39821056   -4.0918719   -19.158689   -28.181724   -3.8398805   -19.316412   0.16167911    -3.959555   -10.026376   -28.501509   -3.8285113   -9.2513002            0            0            0   -2.3579093   -4.1127604    -57.74746 
   22300    56.649272      5182.12    5201.0117   -1747.2833    636.62296   0.33918393   -4.1164182   -19.208532   -28.276165   -3.8742615   -19.270488  0.077100753   -4.0052851   -10.034732    -28.62652    -3.782513   -9.2349072            0            0            0   -2.3656684   -4.1300867   -57.755762 
   22400    56.649272    5588.2377    5447.1044   -1241.1758    629.32962   0.34884716   -4.1159355   -19.191731   -28.183708   -3.9381275   -19.312306  0.036753538    -4.053855   -10.046817   -28.547046   -3.7660765   -9.2610959            0            0            0   -2.3734275    -4.147413   -57.764064 
   22500    56.649272    5337.4799    5452.6422   -1201.7651    637.69037   0.25236659   -4.1744545   -19.204163   -28.254332    -4.018713   -19.338087 -0.081375453   -4.1724071   -10.115077    -28.55455    -3.859415   -9.3301637            0            0            0   -2.3811866   -4.1647392   -57.772365 
   22600    56.649272    5984.3248    5929.1087   -157.55996    633.80701   0.26039991   -4.2303259   -19.225348   -28.277776   -4.0612205   -19.300265  -0.05810706   -4.1938369   -10.174644   -28.523915    -3.979125   -9.3438028            0            0            0   -2.3889458   -4.1820655   -57.780667 
   22700    56.649272    6418.0639    6199.9701    37.528126    635.95816   0.20816201   -4.2035386   -19.216784   -28.313001   -4.0448244    -19.44163 -0.028449573   -4.0668187   -10.073438   -28.577122   -4.0105607   -9.5148005            0            0            0   -2.3967049   -4.1993917   -57.788969 
   22800    56.649272    6093.4243    5765.1565    85.891926    642.78117   0.23038681   -4.2555718   -19.232406   -28.358662   -4.0064098   -19.550504  0.021090153   -4.0989554   -10.124555   -28.613919   -3.9658263   -9.6035789            0            0            0    -2.404464    -4.216718   -57.797271 
   22900    56.649272    6270.1701    6076.3513   -324.17371     636.9991   0.23146812   -4.2711044   -19.250781    -28.34904   -4.0740403   -19.587727   0.10337622   -4.1692533   -10.081968   -28.559837   -4.0707373   -9.5991413            0            0            0   -2.4122231   -4.2340442   -57.805573 
   23000    56.649272    6383.7912    6332.8609    782.20873     647.8708   0.12519647   -4.3533264     -19.2887   -28.381719   -4.0983087   -19.605284 0.00065411005   -4.3146044   -10.153776    -28.58753   -4.0738968   -9.6811894            0            0            0   -2.4199822   -4.2513705   -57.813875 
   23100    56.649272    6652.6973     6486.905    1001.1861     647.3028   0.16606172   -4.3348056   -19.301692   -28.385435    -4.051933    -19.70556  0.058244251   -4.3039405   -10.196657   -28.542768   -3.9680099   -9.7349694            0            0            0   -2.4277414   -4.2686968   -57.822176 
   23200    56.649272    6433.8228    6353.3752    1163.4968    642.93924    0.1272531   -4.3791968   -19.406959   -28.460252   -4.0714002   -19.688736  0.013328597   -4.3212545    -10.30047   -28.575051   -3.9319764    -9.710683            0            0            0   -2.4355005    -4.286023   -57.830478 
   23300    56.649272    7011.5932    6454.2964    1222.1087    642.65701   0.13457667   -4.3086578   -19.404034   -28.420956   -4.1025215   -19.605817 -0.0078614391   -4.2044733   -10.323405   -28.550205   -3.9673202    -9.630051            0            0            0   -2.4432596   -4.3033493    -57.83878 
   23400    56.649272    6657.1747    6533.1336    827.36776    646.84907  0.061490901   -4.3263672   -19.420365   -28.426066   -4.1656743   -19.594621 -0.076869412   -4.1821762   -10.326435   -28.593923   -4.0422202   -9.6106296            0            0            0   -2.4510187   -4.3206755   -57.847082 
   23500    56.649272    6991.5622     6866.249    1485.6299    636.82302  0.068697457   -4.3166124   -19.431183   -28.432945   -4.1630569   -19.534259  -0.10823302   -4.1390564   -10.338072   -28.638924   -4.0759258   -9.5476334            0            0            0   -2.4587778   -4.3380018   -57.855384 
   23600    56.649272    6479.5888     6359.168    841.69947    636.64429   0.05212801   -4.3024662   -19.436262   -28.510082   -4.1513074   -19.522397  -0.18323432   -4.1297956   -10.327644   -28.785875   -4.0466585   -9.5571672            0            0            0   -2.4665369   -4.3553281   -57.863685 
   23700    56.649272     6025.402    5856.4046   -233.31807    635.79675  0.066442466   -4.3235657   -19.459671    -28.54303   -4.1090411   -19.548508  -0.15780758   -4.1793019   -10.358968   -28.820865   -3.9435349   -9.5654449            0            0            0   -2.4742961   -4.3726543   -57.871987 
   23800    56.649272    6432.5882    5702.5797   -372.03856    643.99943 0.0097277139    -4.351309   -19.400278   -28.523043   -4.1363786   -19.571168  -0.26235299   -4.1909867   -10.299013   -28.819893   -3.9629615    -9.609057            0            0            0   -2.4820552   -4.3899806   -57.880289 
   23900    56.649272    5955.1305     5830.715   -455.52945    642.68168 -0.032456811   -4.4400681   -19.324871    -28.53256   -4.1229853   -19.581589  -0.31011209   -4.3052479   -10.212001   -28.859064   -3.9349681   -9.5510864            0            0            0   -2.4898143   -4.4073068   -57.888591 
   24000    56.649272    5440.3423    5615.0831   -990.55475    640.18936  0.022401212   -4.4523832   -19.217348    -28.55147   -4.1411229   -19.551426  -0.23911204   -4.2895382    -10.09584   -28.864362   -3.9502629   -9.6077134            0            0            0   -2.4975734   -4.4246331   -57.896893 
   24100    56.649272    5527.1033    5322.0508   -1388.3023    639.39409 -0.056349498   -4.3746788    -19.24392   -28.582292   -4.1795761   -19.565409  -0.32621845   -4.2067056   -10.128603   -28.883454   -4.0629947   -9.5957044            0            0            0   -2.5053325   -4.4419594   -57.905195 
[...]
  998900    56.649272    5706.0018    6108.7957   -73.770743    647.91106    -75.50108   -173.35935   -100.40704   -104.06238   -173.17974   -100.56223   -75.647968   -173.27958   -91.253728    -104.2427   -173.13016   -90.664498            0            0            0   -78.141209   -173.33833   -138.83134 
  999000    56.649272    6218.0217    6413.6652    60.760925    638.39163   -75.510377   -173.33505   -100.41205   -104.02986    -173.1836   -100.62358   -75.654269    -173.2324    -91.38292   -104.16735   -173.09453   -90.687435            0            0            0   -78.148968   -173.35566   -138.83964 
  999100    56.649272    6565.4472     6280.611    457.87004    647.83457   -75.532218   -173.31582   -100.36696   -104.04277   -173.19759   -100.52833   -75.685448   -173.16386    -91.32515   -104.19512   -173.12995   -90.547894            0            0            0   -78.156727   -173.37299   -138.84795 
  999200    56.649272    6475.5072    6031.3132    814.44667    637.75881   -75.490361   -173.42931   -100.37411   -104.04662   -173.25274   -100.54057   -75.625728   -173.29682    -91.29861   -104.20268    -173.1282   -90.630153            0            0            0   -78.164486   -173.39031   -138.85625 
  999300    56.649272    6518.8593     6546.833    780.36354    635.72023   -75.493371   -173.51774   -100.39116    -104.1032   -173.26784   -100.61262   -75.653943   -173.41497   -91.321299   -104.31251   -173.12539   -90.689971            0            0            0   -78.172246   -173.40764   -138.86455 
  999400    56.649272    6067.3758    6491.5435    624.07447    641.49876   -75.516554   -173.50106   -100.40315    -104.1042   -173.25893   -100.63083    -75.68746   -173.35096   -91.324168   -104.29972   -173.11955   -90.671506            0            0            0   -78.180005   -173.42497   -138.87285 
  999500    56.649272    6348.8728    5864.0426    440.23397    638.46554    -75.56298   -173.54572    -100.4351   -104.12562   -173.17908     -100.617   -75.773826   -173.41284   -91.361369    -104.3745    -173.0326   -90.725728            0            0            0   -78.187764   -173.44229   -138.88115 
  999600    56.649272      6410.59    6368.0622     446.3709    639.41438   -75.613822   -173.53585   -100.38474   -104.08636   -173.24023   -100.62861   -75.840624   -173.40747   -91.300181   -104.33227   -173.09283   -90.756838            0            0            0   -78.195523   -173.45962   -138.88945 
  999700    56.649272    6476.1419    6356.1672   -64.393672    632.39386   -75.642774   -173.55103   -100.39362   -104.08857   -173.28766   -100.52545   -75.892671   -173.41824   -91.302599    -104.3368   -173.16717   -90.548658            0            0            0   -78.203282   -173.47694   -138.89776 
  999800    56.649272    5764.7396    6365.9874   -283.43263    631.73714   -75.631662    -173.5454     -100.385   -104.15482   -173.32884   -100.54075   -75.850946   -173.42082   -91.283629   -104.45681   -173.23755   -90.538304            0            0            0   -78.211041   -173.49427   -138.90606 
  999900    56.649272    5570.9408    5724.6269   -830.17525    644.86402   -75.660932   -173.54801   -100.38802   -104.19858   -173.36309   -100.53484   -75.893159    -173.3822   -91.321385   -104.53054    -173.2398   -90.537626            0            0            0     -78.2188    -173.5116   -138.91436 
 1000000    56.649272    6108.2453    6257.2276    -249.7864    632.75452   -75.644967   -173.54241   -100.40392   -104.20552   -173.36705   -100.53611   -75.863463   -173.39808   -91.351053   -104.49299   -173.23168   -90.549551            0            0            0   -78.226559   -173.52892   -138.92266 
 1000100    56.649272    5725.5589    5925.8082   -771.21993    638.78988   -75.637955   -173.56847   -100.42562   -104.21949   -173.46205   -100.54418   -75.896124   -173.44171   -91.348044   -104.47914    -173.3578   -90.615969            0            0            0   -78.234318   -173.54625   -138.93096 
 1000200    56.649272     5413.504    5213.3525   -1044.7101    644.04399   -75.645881   -173.62117   -100.37604   -104.24045   -173.43796   -100.58513   -75.916704     -173.524   -91.332037   -104.53084    -173.3001   -90.650234            0            0            0   -78.242078   -173.56358   -138.93927 
 1000300    56.649272    5639.3185    5655.9586    -653.9308    640.45787   -75.621937   -173.64383   -100.36907   -104.22608   -173.46991   -100.58824   -75.904396   -173.52093   -91.238472    -104.4726   -173.29227   -90.641931            0            0            0   -78.249837    -173.5809   -138.94757 
 1000400    56.649272    5970.3407    5987.4815   -444.42654     633.0894   -75.695815   -173.66915   -100.33653   -104.17418    -173.3922   -100.61883   -75.960622   -173.50262    -91.22237   -104.43164   -173.26065   -90.669032            0            0            0   -78.257596   -173.59823   -138.95587 
 1000500    56.649272    5682.4263    5747.3404   -990.86296    632.76364   -75.671495   -173.69884   -100.37925    -104.2327   -173.40091   -100.70025   -75.873655    -173.6126   -91.292361    -104.5053   -173.28367   -90.783993            0            0            0   -78.265355   -173.61555   -138.96417 
 1000600    56.649272    6240.4104    5970.6481   -88.836569    635.16275    -75.64265   -173.76021   -100.39608   -104.21827   -173.42084    -100.6776   -75.813606   -173.65515   -91.308776   -104.46665   -173.36024   -90.738041            0            0            0   -78.273114   -173.63288   -138.97247 
 1000700    56.649272    5937.8088    6038.2431   -211.13517    643.64935    -75.68949   -173.76883   -100.40837   -104.17125   -173.45481    -100.6881   -75.874526   -173.70957   -91.327817   -104.35852    -173.4101   -90.764044            0            0            0   -78.280873   -173.65021   -138.98077 
 1000800    56.649272    6668.2789    6408.7457    750.88382    634.60386   -75.654575   -173.66697   -100.41489   -104.14124   -173.44632   -100.74178   -75.809465   -173.62158   -91.326796   -104.31905   -173.37071   -90.731797            0            0            0   -78.288632   -173.66753   -138.98908 
 1000900    56.649272    6178.8555    6343.8265    46.924265    645.99098   -75.647562   -173.60526   -100.49211   -104.19474   -173.53671   -100.69971    -75.80509   -173.54678   -91.417055   -104.38975   -173.41894   -90.715306            0            0            0   -78.296391   -173.68486   -138.99738 
 1001000    56.649272     6419.761    6408.2422     503.3948    644.54329    -75.62916    -173.6009   -100.58746   -104.22119    -173.5461   -100.71992   -75.774723   -173.49796   -91.494727   -104.45003    -173.4411   -90.793931            0            0            0   -78.304151   -173.70219   -139.00568 
 1001100    56.649272    6775.4249    6760.9818    653.23635    640.44006    -75.59172   -173.66977   -100.56549   -104.18391   -173.54277    -100.7354   -75.759232   -173.56535   -91.526985   -104.41657   -173.43987   -90.829201            0            0            0    -78.31191   -173.71951   -139.01398 
 1001200    56.649272    6452.2116    6615.0875    835.67853    646.83906   -75.638167   -173.65062   -100.59527   -104.19355   -173.49322   -100.77843   -75.843243   -173.52984   -91.497513   -104.37331   -173.45477   -90.852585            0            0            0   -78.319669   -173.73684   -139.02228 
 1001300    56.649272    6473.3329    6559.3736    583.98155    642.87352   -75.635247   -173.62812   -100.60389   -104.13644   -173.43068   -100.79908    -75.85135   -173.47333    -91.45287   -104.33522   -173.31785   -90.871922            0            0            0   -78.327428   -173.75416   -139.03059 
 1001400    56.649272    6853.4824    6130.1771    1071.5913    649.00437   -75.632026   -173.68766   -100.54735    -104.1895     -173.341   -100.80067   -75.814487   -173.63009   -91.494059   -104.38693   -173.24471   -90.831915            0            0            0   -78.335187   -173.77149   -139.03889 
 1001500    56.649272      6588.13    6820.4728    736.29496    639.30336   -75.663562   -173.73285   -100.53399   -104.18308   -173.36386   -100.86287   -75.880265   -173.64506   -91.476432   -104.40014   -173.25422    -90.92679            0            0            0   -78.342946   -173.78882   -139.04719 
 1001600    56.649272    6445.8284    6392.0608    267.98045     635.5299    -75.68273   -173.71241   -100.52772     -104.211   -173.39129   -100.81165   -75.888041   -173.58826   -91.465431   -104.44961   -173.27479   -90.878602            0            0            0   -78.350705   -173.80614   -139.05549 
 1001700    56.649272    6249.2004    6456.5452     401.6524    637.55954   -75.671896    -173.6521   -100.51063   -104.19989   -173.36492   -100.75588   -75.859272   -173.55099   -91.391476   -104.46442    -173.1696   -90.789049            0            0            0   -78.358464   -173.82347   -139.06379 
 1001800    56.649272    6200.0275    6131.7362   -271.40415    628.90231   -75.689459    -173.5874   -100.57558   -104.18987   -173.43321   -100.72578   -75.867134   -173.41545    -91.49882   -104.38505   -173.28794   -90.722676            0            0            0   -78.366223    -173.8408   -139.07209 
 1001900    56.649272    5796.1333    5671.3489   -409.47835    642.77597   -75.704622   -173.59248   -100.53838   -104.26425   -173.47892   -100.69375   -75.881552   -173.35483    -91.43966   -104.43437    -173.3815   -90.764957            0            0            0   -78.373983   -173.85812    -139.0804 
 1002000    56.649272    5809.3673    5635.2794   -953.21636    644.97826   -75.731517   -173.65159   -100.56459   -104.30571   -173.50092   -100.72402   -75.896944   -173.47547   -91.464207   -104.49848    -173.3389   -90.796055            0            0            0   -78.381742   -173.87545    -139.0887 
 1002100    56.649272    5780.5292    5363.3914   -878.52557    640.28452   -75.723275   -173.62912   -100.55827   -104.28466   -173.46762   -100.70119   -75.903651   -173.37088   -91.489042   -104.54976   -173.30776   -90.776573            0            0            0   -78.389501   -173.89278     -139.097 
 1002200    56.649272    5438.7337    5396.9116   -984.93614    634.79924   -75.763355   -173.68089   -100.52035   -104.30582   -173.48672   -100.69551   -75.980016   -173.50389   -91.435769   -104.54927   -173.24173   -90.748195            0            0            0    -78.39726    -173.9101    -139.1053 
 1002300    56.649272    5455.1061    5415.9413   -1132.5579    641.66055   -75.790031   -173.73755   -100.53409   -104.27789   -173.45921   -100.77196   -76.003428   -173.60489   -91.481357   -104.46777    -173.1463   -90.769996            0            0            0   -78.405019   -173.92743    -139.1136 
 1002400    56.649272     5655.815    5841.4968   -877.39714    642.50159   -75.807146   -173.86513   -100.53196   -104.29715   -173.51365   -100.81791    -76.02882   -173.69043   -91.453929   -104.52475   -173.27048   -90.814571            0            0            0   -78.412778   -173.94475   -139.12191 
 1002500    56.649272    5864.9409    5603.0186   -780.04202    639.14658   -75.763331   -173.82577   -100.54215   -104.32757   -173.49844   -100.87961   -75.987637   -173.66733   -91.497264   -104.61166   -173.33473   -90.922288            0            0            0   -78.420537   -173.96208   -139.13021 
 1002600    56.649272    5734.6486    5504.3871   -305.32079    638.22065   -75.762285   -173.82065   -100.50225   -104.36605   -173.50176   -100.79756   -75.990954   -173.67826   -91.384633   -104.64988   -173.44643   -90.869079            0            0            0   -78.428296   -173.97941   -139.13851 
 1002700    56.649272    6094.1152    5834.0816   -125.22651    632.08438   -75.773188   -173.80066    -100.5482   -104.31495   -173.64233   -100.79505   -75.994219   -173.60316   -91.454252   -104.60607   -173.60894   -90.874225            0            0            0   -78.436056   -173.99673   -139.14681 
 1002800    56.649272    6434.5347    5831.1995    51.606389    640.82938   -75.820315    -173.8179   -100.62579   -104.31013   -173.74335    -100.8184   -76.000528   -173.67239   -91.471053   -104.55592   -173.63326   -90.869407            0            0            0   -78.443815   -174.01406   -139.15511 
 1002900    56.649272    6713.6883    6476.5165    293.12403    640.23319   -75.790521    -173.8927   -100.66561   -104.32963   -173.80558   -100.89602   -76.001578   -173.77811   -91.574164   -104.53932   -173.68855   -90.944765            0            0            0   -78.451574   -174.03139   -139.16341 
 1003000    56.649272    6315.3194    6227.0857    152.91883    645.78587   -75.814409   -173.87173   -100.74456   -104.32671   -173.78642   -100.92719   -76.025019   -173.80187   -91.684516   -104.53526    -173.6833   -90.998161            0            0            0   -78.459333   -174.04871   -139.17172 
 1003100    56.649272    6693.1956    6611.3969    745.78807    641.27766    -75.82246   -173.92943   -100.76779   -104.34873   -173.80478   -100.89352   -76.001693   -173.94106   -91.711009   -104.56198   -173.63176   -90.968576            0            0            0   -78.467092   -174.06604   -139.18002 
 1003200    56.649272    6659.1577    6746.1444    814.05997    643.34113   -75.788217   -174.05844   -100.70301   -104.32488   -173.77084   -100.90354   -75.926823   -173.95141   -91.649537   -104.56152   -173.62161   -90.981367            0            0            0   -78.474851   -174.08336   -139.18832 
 1003300    56.649272     6620.333    6857.1974    921.41463    644.78705   -75.755791   -174.14575   -100.77136   -104.37618   -173.80772    -100.9977   -75.919104   -174.02327   -91.708152   -104.60066   -173.72573   -91.016424            0            0            0    -78.48261   -174.10069   -139.19662 
 1003400    56.649272    7035.0742     6619.249    736.04552    633.56184   -75.786225   -174.17274    -100.7528   -104.36469   -173.84302    -100.9961   -75.997141   -174.03007   -91.691307   -104.57054   -173.79766   -91.074006            0            0            0   -78.490369   -174.11802   -139.20492 
 1003500    56.649272    6736.4565    6845.1844    783.93848    643.19748    -75.85617   -174.16115   -100.78879   -104.35313   -173.87392   -100.98567   -76.051431   -173.97092   -91.745086   -104.51868   -173.83265   -91.050165            0            0            0   -78.498128   -174.13534   -139.21323 
 1003600    56.649272    6611.7645    6879.1254    812.25106    631.70635   -75.850473   -174.13311   -100.70731   -104.34501   -173.98868   -100.94641   -75.994999   -173.98021   -91.667817   -104.47772   -173.88135   -90.993064            0            0            0   -78.505888   -174.15267   -139.22153 
 1003700    56.649272    6351.6742    6356.9771    882.51397     644.8476   -75.874391   -174.17017   -100.68012   -104.44577    -174.0307   -100.92043    -76.03639   -174.16906    -91.56619   -104.63868   -173.96819   -91.021116            0            0            0   -78.513647      -174.17   -139.22983 
 1003800    56.649272    5915.8898    6194.8645   -19.002654    639.07419   -75.856924   -174.24272   -100.70289   -104.44666   -174.01875   -100.94872     -75.9951   -174.22022   -91.539479   -104.60728   -173.95488   -90.998437            0            0            0   -78.521406   -174.18732   -139.23813 
 1003900    56.649272      5718.09    5832.1128   -462.11763    638.82411   -75.940449   -174.25673   -100.73511   -104.45543   -174.03429   -100.92542   -76.091278   -174.19984   -91.625145    -104.6419   -173.91486   -90.939871            0            0            0   -78.529165   -174.20465   -139.24643 
 1004000    56.649272    6076.7668    6019.3883   -586.63279    635.08394   -75.927011   -174.24622    -100.6582   -104.46991   -174.03066   -100.96123    -76.11392   -174.12351   -91.539671   -104.65993   -173.93462   -91.028776            0            0            0   -78.536924   -174.22197   -139.25473 
 1004100    56.649272    5868.7242    6119.4201   -540.41009    626.71606   -75.928933   -174.34685   -100.64914   -104.48907   -173.98626   -100.93746   -76.157846   -174.22657   -91.578555   -104.73005   -173.88938   -90.982152            0            0            0   -78.544683    -174.2393   -139.26304 
 1004200    56.649272    5418.0556    5278.9306   -771.24052       645.55   -75.977724   -174.38734   -100.59616   -104.55835   -174.10634   -100.87183   -76.210155   -174.25941   -91.553134   -104.85194   -173.99675   -90.921847            0            0            0   -78.552442   -174.25663   -139.27134 
 1004300    56.649272    5338.9243     5428.414   -1212.2266    635.96123   -75.947718   -174.38109   -100.64734   -104.55458   -174.13531   -100.93592   -76.224588   -174.20391   -91.542245   -104.89268   -174.02432   -90.968111            0            0            0   -78.560201   -174.27395   -139.27964 
 1004400    56.649272    5913.8476    5394.3425   -937.87428    638.98385   -75.983814   -174.36312   -100.67972   -104.51886   -174.10316   -100.95618   -76.248823   -174.17521   -91.530922   -104.80634   -173.96516   -90.999337            0            0            0   -78.567961   -174.29128   -139.28794 
 1004500    56.649272    5048.5205    5303.2568   -1016.8391    644.03283   -75.995645   -174.35964   -100.66819   -104.46635   -174.14939    -100.9432   -76.271337   -174.24552    -91.59945   -104.81873   -173.98281   -90.983641            0            0            0    -78.57572   -174.30861   -139.29624 
 1004600    56.649272    5458.7572    5363.0696   -1171.1479    637.64039   -76.064544   -174.39121   -100.71483   -104.51084   -174.22423   -100.88266   -76.363342   -174.30051   -91.611855   -104.86168   -174.10611   -90.933718            0            0            0   -78.583479   -174.32593   -139.30455 
 1004700    56.649272    5951.1553    5826.5172   -307.23085    639.57133   -75.985064   -174.43865   -100.74233   -104.54286   -174.23769   -100.94171   -76.277507   -174.30488   -91.618041   -104.83686   -174.11975   -91.015285            0            0            0   -78.591238   -174.34326   -139.31285 
 1004800    56.649272    6156.4481    6001.0938   -118.63308    635.07578   -75.970948   -174.37697   -100.81249   -104.61011   -174.17018   -100.97563   -76.202992   -174.31896   -91.662626    -104.9063    -174.0363   -91.011315            0            0            0   -78.598997   -174.36058   -139.32115 
 1004900    56.649272    5777.7481     5882.814   -16.563877    644.70848    -75.98564   -174.36318   -100.89162   -104.59277   -174.17592   -101.03157    -76.13766   -174.28202   -91.841633   -104.80522   -174.13377   -91.047369            0            0            0   -78.606756   -174.37791   -139.32945 
 1005000    56.649272    6903.2334    6641.8595    1323.6017     633.4502   -76.027894   -174.45516   -100.90863   -104.54883   -174.22219   -101.01553   -76.215263   -174.38783    -91.82994    -104.6904   -174.24818   -91.037862            0            0            0   -78.614515   -174.39524   -139.33775 
Loop time of 19291.3 on 15 procs for 1000000 steps with 6384 atoms

Pair  time (%) = 8077.19 (41.8696)
Neigh time (%) = 52.211 (0.270646)
Comm  time (%) = 7596.58 (39.3783)
Outpt time (%) = 265.762 (1.37762)
Other time (%) = 3299.54 (17.1038)

Nlocal:    425.6 ave 652 max 72 min
Histogram: 3 1 2 0 0 0 0 0 1 8
Nghost:    2042.67 ave 2951 max 752 min
Histogram: 3 3 0 0 0 0 0 1 2 6
Neighs:    29502.7 ave 46679 max 2120 min
Histogram: 3 0 3 0 0 0 0 0 2 7

Total # of neighbors = 442540
Ave neighs/atom = 69.3202
Neighbor list builds = 31528
Dangerous builds = 0



end
