LAMMPS (16 Feb 2016)
# ------------------------ INITIALIZATION ----------------------------
echo both
#log		log.c
units           metal
dimension       3
boundary        p p p
atom_style      atomic
shell         mkdir  cfg
shell         mkdir  dump


# ----------------------- ATOM DEFINITION & Force Field -------------
read_data     NPT_relaxed.data       ##Read file dumped from simulation 1
  orthogonal box = (-211.545 -11.4349 -879.422) to (211.545 11.4349 22.1299)
  16 by 1 by 32 MPI processor grid
  reading atoms ...
  487040 atoms
  reading velocities ...
  487040 velocities

pair_style      eam/alloy
pair_coeff  	  * * Al_wkg_MSMSE_2009.set Al

#---------------------- DEFINE Laser GERION and GROUP ----------------
region       R1  block -75  75  INF  INF  INF  5  units box
group        G1 region R1
171802 atoms in group G1
group        G2 subtract all G1
315238 atoms in group G2


#define     temperature/pressure calculation  group
variable    x1atom atom "x>=0  &&  x<4 &&  z>-40 && z<1"     ##NEW!!!!!!!!!!!!
variable    x2atom atom "x>=-211.55  &&  x<-207.55 &&  z>-40 && z<1"
variable    x3atom atom "x>=0  &&  x<4 &&  z>-20 && z<1"
variable    x4atom atom "x>=-211.55  &&  x<-207.55 &&  z>-20 && z<1"
variable    x5atom atom "x>=196  &&  x<200 &&  z>-40 && z<1"

group       x1atom variable x1atom
213 atoms in group x1atom
group       x2atom variable x2atom
222 atoms in group x2atom
group       x3atom variable x3atom
110 atoms in group x3atom
group       x4atom variable x4atom
114 atoms in group x4atom
group       x5atom variable x5atom
177 atoms in group x5atom


compute      COM1x x1atom com
compute      COM2x x2atom com
compute      COM3x x3atom com
compute      COM4x x4atom com
compute      COM5x x5atom com

compute      COMall all com

#Temperature profile
#variable      Tprofile atom 300*(1+(step/5000)*2.5*exp(z/40))
variable      Tprofile atom 300*(1+(step/5000)*2.5*exp(z/75))

# ------------------------- SETTINGS ---------------------------------
thermo          100
thermo_style    custom step lx pxx pyy pzz temp c_COM1x[1] c_COM1x[2] c_COM1x[3] c_COM2x[1] c_COM2x[2] c_COM2x[3] c_COM3x[1] c_COM3x[2] c_COM3x[3] c_COM4x[1] c_COM4x[2] c_COM4x[3]  c_COM5x[1] c_COM5x[2] c_COM5x[3] c_COMall[1] c_COMall[2] c_COMall[3]

timestep       0.002


compute dispall all displace/atom
# ---------------- Run Laser Material Interaction --------------------
#dump          1 all custom 1000 dump/z1dump.atom id type x y z c_dispall[1]  c_dispall[2]  c_dispall[3] c_dispall[4]
#dump          2 all cfg 100 cfg/*.cfg mass type xs ys zs
#dump_modify   2 element Al

#relax for 2 PS
#fix           1 all nvt temp 300.0 300.0 0.1
#run  1000
#unfix         1

fix           1  all nve
fix           3temp  G1  langevin  v_Tprofile  0  0.1  378411   #TEST ALL
run           5000
Neighbor list info ...
  1 neighbor list requests
  update every 1 steps, delay 10 steps, check yes
  max neighbors/atom: 2000, page size: 100000
  master list distance cutoff = 8.365
  ghost atom cutoff = 8.365
  binsize = 4.1825 -> bins = 102 6 216
Memory usage per processor = 0.242359 Mbytes
Step Lx Pxx Pyy Pzz Temp COM1x[1] COM1x[2] COM1x[3] COM2x[1] COM2x[2] COM2x[3] COM3x[1] COM3x[2] COM3x[3] COM4x[1] COM4x[2] COM4x[3] COM5x[1] COM5x[2] COM5x[3] COMall[1 COMall[2 COMall[3 
       0    423.08983    87.273362    111.52923   -373.08287    300.22025    1.6834113  -0.92864963   -19.543647   -209.88813  -0.76572663   -19.569717    1.6693896   -1.1094617   -9.3127035   -209.88707  -0.58053108   -9.4282838    198.04181  -0.89715444   -19.418791  -0.72623007  -0.56920736   -418.53895 
     100    423.08983    110.86401    166.49637   -321.76732    300.03306     1.663477  -0.90755851   -19.569247   -209.86671  -0.78587917   -19.596924    1.6387088   -1.0851273    -9.327763   -209.86776  -0.59676645   -9.5243838    198.05141  -0.86787397    -19.49333   -0.7260347  -0.56860709   -418.53966 
     200    423.08983    137.57775    211.83781   -246.83262    300.64615    1.6624009  -0.93930064   -19.578395   -209.87351  -0.77906461   -19.610841    1.6366171   -1.1399215   -9.3467768   -209.86823  -0.61184288   -9.5339517    198.06279  -0.89158702   -19.535569  -0.72607994  -0.56782275   -418.53977 
     300    423.08983    186.78849     249.0866   -186.74667    300.76638    1.6582433  -0.96308241   -19.561117   -209.89686  -0.80802463   -19.654595    1.6202065   -1.1551034   -9.3020045   -209.85616  -0.67247645   -9.5802773     198.0638   -0.8915823   -19.604003  -0.72668213  -0.56758526   -418.53938 
     400    423.08983    214.19538    266.67613   -118.30845    301.59071     1.668046  -0.94927366    -19.56359     -209.923  -0.81514841   -19.706478    1.6328969   -1.1200807   -9.3186884   -209.91496  -0.67673769   -9.6176997    198.09299  -0.90631375   -19.610763  -0.72703907  -0.56731723    -418.5385 
     500    423.08983    300.17569    313.00915   -36.105213    302.14155     1.658042  -0.95044854   -19.545337   -209.88465  -0.80739125   -19.715337    1.6141885   -1.1616826   -9.3077501   -209.87622  -0.71086678   -9.6159886    198.08615    -0.915375   -19.625593  -0.72761635   -0.5668748   -418.53877 
     600    423.08983    309.52807     393.9245   -1.7775669    302.87456     1.631654   -0.9476209   -19.521903   -209.88829  -0.79320855    -19.71232    1.5862635   -1.1332225   -9.3220467   -209.90328  -0.69685324    -9.643978    198.06885  -0.94785749   -19.643518  -0.72802403  -0.56604909   -418.53908 
     700    423.08983    333.36729    383.63706    12.109769    303.22542    1.6364912  -0.97903934   -19.570828   -209.90865  -0.83997201   -19.702674    1.6006706   -1.1980281   -9.3425581   -209.93772  -0.72846616   -9.6282387    198.07692  -0.92228076   -19.633564  -0.72808506  -0.56540826   -418.53897 
     800    423.08983    403.37452    447.75523    42.582493    303.15009    1.6195921  -0.93711376   -19.552233   -209.87281  -0.90199693   -19.685772    1.6040301   -1.1543334   -9.3351754   -209.90131  -0.79349295   -9.6098662    198.06237  -0.91107541   -19.620163  -0.72806034  -0.56481864   -418.53929 
     900    423.08983    421.45263    496.49653    123.19898    303.88033     1.637426  -0.96182257   -19.546819   -209.85453  -0.92187027   -19.653736    1.6249942    -1.207157   -9.3155908   -209.84514  -0.85079548   -9.5883655     198.0796  -0.91085065   -19.571977  -0.72838187  -0.56440405   -418.53917 
    1000    423.08983    416.48453    490.02466    88.699527    305.15272    1.6840222  -0.99952937   -19.549165   -209.87865  -0.89797909   -19.679891    1.6667714   -1.1995925   -9.2906309   -209.88222  -0.82243562   -9.5915907    198.11268  -0.97327594    -19.49008  -0.72830449  -0.56333175   -418.53879 
    1100    423.08983    419.50961     497.4152    109.76597     305.1367    1.7135478   -1.0180538   -19.532766   -209.86292   -0.8822844   -19.632187    1.6897334   -1.2531173   -9.2629402   -209.83615  -0.75164522   -9.5291121    198.10447   -1.0298457   -19.442417  -0.72815224  -0.56231854   -418.53853 
    1200    423.08983     469.3249    502.44467    120.44192    305.41129    1.6897536  -0.96454677   -19.533958   -209.84367  -0.85247801   -19.574607    1.6514218    -1.152112   -9.2747942   -209.79555  -0.72178402     -9.46743    198.10878   -1.0333922   -19.443346  -0.72819482  -0.56095996     -418.538 
    1300    423.08983    511.08107    524.51414    143.94839    306.17457    1.6636509  -0.94740569   -19.502027   -209.89716  -0.88034165   -19.530791     1.631361   -1.1499194   -9.2155757   -209.85323  -0.71085147   -9.4137567    198.10955  -0.99540552   -19.431028  -0.72845162  -0.55942596    -418.5382 
    1400    423.08983    484.86779    496.58153    108.98438    307.46565    1.6678858   -0.9470925   -19.501148   -209.90819  -0.90174781   -19.495454    1.6474308   -1.1460692   -9.2361604   -209.88266  -0.74267605   -9.3946362    198.08484  -0.98313437   -19.462347  -0.72881459  -0.55904071    -418.5383 
    1500    423.08983    510.99042    541.91425    148.09156    307.56637    1.6428374  -0.97663681    -19.55751     -209.931  -0.91667803   -19.504179    1.6392831   -1.1762467   -9.2874808   -209.92279   -0.7910921   -9.3794352    198.07726   -1.0161068    -19.44408  -0.72978651  -0.55851462   -418.53834 
    1600    423.08983    527.31809    587.83543    178.00478    308.51725    1.6691803  -0.98999127   -19.552931   -209.89036  -0.90352364   -19.615548     1.660252   -1.1954197   -9.2761219   -209.87961  -0.76478987   -9.4964518    198.06964   -1.0357947   -19.404715  -0.73080361  -0.55679786   -418.53837 
    1700    423.08983    593.91196    656.28358    149.66743    308.74364    1.6828699  -0.97510387   -19.591258   -209.87774  -0.90288813    -19.60912    1.6413313   -1.1626496   -9.3062709   -209.89051  -0.76433736   -9.5299656    198.09946   -1.0546368   -19.372824  -0.73161926  -0.55414922   -418.53855 
    1800    423.08983    612.38908    643.84246    198.99925    309.18969    1.6516872  -0.98264802   -19.519933    -209.8955   -0.9024045   -19.582461    1.6334975   -1.1853388   -9.2088058   -209.92998   -0.7449187   -9.4929809    198.08568   -1.0620178     -19.4366  -0.73226796  -0.55161602   -418.53882 
    1900    423.08983    611.03063    681.98726    159.90892    309.54179    1.6774525  -0.97182951    -19.51073   -209.91005  -0.90235118   -19.574116    1.6674269   -1.1516776   -9.2038225   -209.90806  -0.71085577   -9.5161553    198.06637   -1.0008183    -19.44494  -0.73235128  -0.54945212   -418.53916 
    2000    423.08983    655.48401    722.96156    247.21238    309.99554    1.6605257  -0.98807909   -19.530198   -209.93809  -0.89867574   -19.524934    1.6496474   -1.2510875   -9.2859794   -209.91589   -0.7328113   -9.4562614    198.04156   -1.0405151   -19.430245  -0.73227284  -0.54788439   -418.53851 
    2100    423.08983     656.6664     707.8132     230.0392    310.68044     1.646204  -0.99890524   -19.513031    -209.9309  -0.85256563   -19.510685    1.6116745   -1.2572781   -9.2931324   -209.90161  -0.73472006   -9.4355116    198.00042   -1.0443262   -19.436481  -0.73351415  -0.54620326   -418.53826 
    2200    423.08983    652.35848    686.50957    198.94579    311.87147    1.6486015   -1.0116808   -19.506914   -209.89952  -0.85127221   -19.480586    1.6165898   -1.2317008   -9.2406482   -209.84539  -0.79365475   -9.3936586    198.03531   -1.0363657   -19.431919  -0.73435422  -0.54493452   -418.53765 
    2300    423.08983    714.90129    783.59598     282.2473    311.72373    1.6249795   -1.0063135   -19.447268    -209.8945  -0.86020322   -19.495342    1.5588593   -1.2097977   -9.1486848   -209.89009  -0.77407741   -9.4132583    198.05555   -1.0355919   -19.380362  -0.73494361  -0.54393702   -418.53744 
    2400    423.08983     672.2543    733.92139    223.94472    312.80769     1.619961  -0.95192013   -19.468723   -209.93182  -0.86549227   -19.491119    1.5611217   -1.1582073   -9.1770327   -209.95514  -0.75777093   -9.4153694    198.06178   -1.0403936   -19.309113  -0.73492701  -0.54296415    -418.5377 
    2500    423.08983    694.11787    781.25764    217.08046    313.12067    1.6381938  -0.93191027   -19.470412   -209.94763  -0.85279604   -19.498817    1.5682156   -1.1567659   -9.1424452    -209.9333  -0.73331576   -9.3988439    198.06719   -1.0273913    -19.27734  -0.73465868  -0.54123461   -418.53887 
    2600    423.08983     735.1981    781.69163    260.40743    314.05375    1.6801758  -0.99804432   -19.478375    -209.9314  -0.84342449   -19.502727    1.5996863    -1.230679   -9.1757707   -209.88625  -0.75326452   -9.3770779    198.07466  -0.98807505   -19.263768   -0.7350852   -0.5405652   -418.53839 
    2700    423.08983    731.95652    828.85621    281.63686    314.42662    1.6785593  -0.98510186   -19.489191   -209.89128  -0.85915151   -19.447395    1.6301642   -1.2440847   -9.1936258   -209.84518  -0.77940367   -9.3483646    198.09677  -0.93172207   -19.240677  -0.73560195  -0.53921354   -418.53813 
    2800    423.08983     782.4292    823.17116    275.95854    315.24091    1.6526066   -1.0170113   -19.466843   -209.88026  -0.86316725    -19.42256    1.5809251   -1.2603614   -9.1837692    -209.8552  -0.72776205   -9.3479233    198.11749  -0.94267851    -19.24525  -0.73572256  -0.53847903    -418.5381 
    2900    423.08983     764.2895    814.71323    266.02473    315.71808    1.5998913  -0.91947385    -19.46463   -209.87967  -0.80796559   -19.375898    1.5415501   -1.1767205   -9.1578954   -209.89491  -0.65431087    -9.255634    198.09836  -0.89727612   -19.198723  -0.73569941   -0.5374295   -418.53803 
    3000    423.08983    781.30514    900.70127    301.24573    316.75096     1.664847  -0.92032816   -19.420016   -209.92086  -0.78302979   -19.295896    1.6102926   -1.1060228    -9.066966   -209.94581  -0.63611125   -9.1851961    198.12585  -0.89789535   -19.219864  -0.73587289  -0.53627015   -418.53855 
    3100    423.08983     831.3093    910.42466    349.55793    317.03017    1.6446975  -0.96979824   -19.468446   -209.88489  -0.77419314   -19.248061    1.6114606   -1.1647894   -9.1441712   -209.87886  -0.66265214   -9.1300109    198.11696  -0.84663484   -19.204749  -0.73571537  -0.53505885   -418.53923 
    3200    423.08983    856.74332    924.36452    360.47518    317.56136    1.6655174  -0.92048098   -19.411354   -209.89071  -0.72542594     -19.2406    1.6166272   -1.1452183   -9.0810606   -209.88723  -0.62667414   -9.1405317    198.08934  -0.81956057   -19.156488  -0.73534987  -0.53409988     -418.539 
    3300    423.08983    902.13974    951.19176     427.3138    317.89173    1.6654547  -0.91830209   -19.474905   -209.90332  -0.74804605   -19.248367     1.622633   -1.1474492   -9.1454073    -209.8878  -0.63752225   -9.1526953    198.08974  -0.77879899   -19.129629   -0.7356876  -0.53279903   -418.53887 
    3400    423.08983    923.02648    985.52348    416.40922    318.75774    1.6490789  -0.91913091    -19.42992    -209.8738    -0.688231   -19.241677     1.602525   -1.1761731   -9.0924788   -209.84088  -0.53059883   -9.1559686    198.08942  -0.77586452   -19.132691  -0.73658339  -0.53131647   -418.53884 
    3500    423.08983     978.2729    966.31041    359.26491    319.88925    1.6959094  -0.84390213   -19.392266   -209.88568  -0.64300648   -19.266274    1.6554332   -1.0672734   -9.0470184   -209.82369  -0.46470294   -9.1432006    198.14297  -0.79522876   -19.122445  -0.73750623  -0.52967084   -418.53912 
    3600    423.08983    979.97529    1009.5306    385.34074    320.01974    1.6469231  -0.88607503   -19.341597   -209.88774  -0.62602691   -19.310695    1.5763338   -1.1811535   -9.0011402   -209.82709  -0.40325932   -9.1545398    198.17062  -0.74891166   -19.194472  -0.73800152  -0.52861539   -418.53874 
    3700    423.08983    935.66739    998.06514    386.84618    321.19658    1.6473238  -0.92704388   -19.303375   -209.87429   -0.6584577   -19.280736    1.5934117   -1.2631391   -8.9666263   -209.82337  -0.45583668       -9.131     198.1635  -0.75689577   -19.234593  -0.73881053  -0.52804279   -418.53937 
    3800    423.08983    979.99902    1062.5159    407.52501    321.34545    1.6696258  -0.91051596   -19.239016   -209.85443  -0.62831681   -19.353812     1.595493   -1.2106841   -8.8912988   -209.84803  -0.47352673   -9.2125997    198.14986  -0.70665458    -19.29951  -0.73901197  -0.52783247   -418.53999 
    3900    423.08983    1015.5051    1095.6985     458.7827     321.7867    1.6411201  -0.95484146    -19.26571   -209.87476  -0.64469591    -19.40429    1.5787763   -1.2485219   -8.8981289   -209.87313  -0.50175279   -9.3337526    198.15156  -0.69683144   -19.256921   -0.7383304  -0.52794556   -418.54091 
    4000    423.08983     1059.368    1099.5152    449.71516    322.48209    1.6677192  -0.94315532   -19.227364   -209.88559  -0.67589111   -19.412296    1.6507149   -1.2559301   -8.8608653   -209.89562  -0.55396575   -9.3482201    198.11869  -0.71808431   -19.293408   -0.7376543  -0.52750183   -418.54085 
    4100    423.08983    1071.2966    1131.8468    497.63643     323.7313    1.6412341  -0.93571252   -19.224921   -209.91522  -0.66631218   -19.460447    1.6294038   -1.2116434    -8.900609   -209.91398  -0.54798497   -9.3657636    198.06553  -0.78264662   -19.299074  -0.73688457  -0.52721468   -418.54135 
    4200    423.08983    1133.0425    1176.8525      519.781    324.13416    1.6225404  -0.96448274   -19.210348     -209.936  -0.68835748   -19.474387    1.6549129   -1.2087172   -8.8786787   -209.93027  -0.54633373   -9.4003363    198.09179  -0.81104445   -19.286585  -0.73615687  -0.52693981   -418.54178 
    4300    423.08983    1156.1404    1221.7395    541.57004    324.52741    1.5963358  -0.89709443   -19.202781   -209.97007  -0.73995301   -19.436765    1.5979329   -1.1037714    -8.812151   -209.95667  -0.62297644   -9.3269953    198.08927   -0.8859085   -19.275131  -0.73547608  -0.52535857   -418.54292 
    4400    423.08983    1149.5337    1230.4912    553.35082    326.29826    1.6548357   -0.8619593   -19.221959    -209.9757  -0.76212315   -19.480142    1.6653392   -1.0268598   -8.8333642   -209.94941  -0.64251879   -9.3357624    198.09456  -0.93661878   -19.341016  -0.73497464  -0.52497966   -418.54451 
    4500    423.08983    1249.2801    1279.7384      659.346    326.10211    1.6975185  -0.92115393   -19.283214   -209.93694  -0.78555819   -19.460225    1.6728801   -1.1295342   -8.9014453   -209.88736  -0.66924714   -9.3144432    198.03259  -0.95685597   -19.306128  -0.73469526  -0.52468927   -418.54632 
    4600    423.08983    1261.3194    1270.0656    625.78977    327.04425    1.7523914    -1.009452   -19.279032   -209.97504  -0.81291242   -19.480547    1.7723633    -1.256913   -8.8864189   -209.95276  -0.69733666   -9.3685993    198.03183  -0.97686548   -19.281368  -0.73421303  -0.52481965   -418.54808 
    4700    423.08983     1307.286    1340.1699     717.7669    327.20979    1.7356659   -1.0125377   -19.281415   -210.00853  -0.85577052   -19.457039    1.7366871   -1.2113592   -8.8420831   -210.02252  -0.73041562   -9.3621643    198.06684   -0.9658301   -19.329509  -0.73371034  -0.52417981   -418.54942 
    4800    423.08983    1279.3747    1318.1826    669.41451     328.3269    1.6889052   -1.0665524   -19.271183   -210.00125  -0.83304354   -19.446154    1.6910841   -1.2917968   -8.8317696   -210.02249  -0.69645917   -9.3771978    198.05538  -0.96173656   -19.350374  -0.73341015  -0.52381104   -418.55074 
    4900    423.08983    1359.5313     1361.566    702.14206    329.24587    1.7388243   -1.0448078   -19.250771   -209.99599  -0.82604279   -19.443853    1.7366407   -1.2760388   -8.8102887   -209.99084   -0.7031263   -9.3174196    198.06216   -0.9441209    -19.33362  -0.73316305  -0.52323469   -418.55216 
    5000    423.08983    1334.3302     1378.821    725.29994     329.0678    1.6831806   -1.0481053   -19.203773   -209.98841  -0.82866467   -19.453089    1.6530183   -1.2807695    -8.776085   -210.00361  -0.72345241   -9.3128603    198.03429   -0.9733727   -19.330711  -0.73303886  -0.52323573   -418.55397 
Loop time of 41.441 on 512 procs for 5000 steps with 487040 atoms

Performance: 20.849 ns/day, 1.151 hours/ns, 120.653 timesteps/s
99.9% CPU use with 512 MPI tasks x no OpenMP threads

MPI task timing breakdown:
Section |  min time  |  avg time  |  max time  |%varavg| %total
---------------------------------------------------------------
Pair    | 0.0020556  | 26.295     | 29.177     | 100.2 | 63.45
Neigh   | 0.0004468  | 0.48043    | 0.55594    |  16.8 |  1.16
Comm    | 0.088446   | 5.2625     | 15.082     |  93.6 | 12.70
Output  | 0.16665    | 0.35075    | 1.4069     |  32.5 |  0.85
Modify  | 0.030201   | 0.53922    | 1.2838     |  59.6 |  1.30
Other   |            | 8.513      |            |       | 20.54

Nlocal:    951.25 ave 1063 max 0 min
Histogram: 16 0 0 16 0 1 15 0 7 457
Nghost:    3231.46 ave 3693 max 0 min
Histogram: 16 0 0 15 1 16 0 0 0 464
Neighs:    66741.2 ave 75813 max 0 min
Histogram: 16 0 16 0 0 10 6 0 18 446

Total # of neighbors = 34171493
Ave neighs/atom = 70.1616
Neighbor list builds = 139
Dangerous builds = 0


variable  com1_x equal "c_COM1x[1]"
variable  com1_y equal "c_COM1x[2]"
variable  com1_z equal "c_COM1x[3]"
variable  com2_x equal "c_COM2x[1]"
variable  com2_y equal "c_COM2x[2]"
variable  com2_z equal "c_COM2x[3]"
variable  com3_x equal "c_COM3x[1]"
variable  com3_y equal "c_COM3x[2]"
variable  com3_z equal "c_COM3x[3]"
variable  com4_x equal "c_COM4x[1]"
variable  com4_y equal "c_COM4x[2]"
variable  com4_z equal "c_COM4x[3]"
variable  com5_x equal "c_COM5x[1]"
variable  com5_y equal "c_COM5x[2]"
variable  com5_z equal "c_COM5x[3]"
variable  comall_x equal "c_COMall[1]"
variable  comall_y equal "c_COMall[2]"
variable  comall_z equal "c_COMall[3]"


fix          2 all print 100 "${com1_x}   ${com1_y}   ${com1_z}  ${com2_x}   ${com2_y}   ${com2_z} ${com3_x}   ${com3_y}   ${com3_z} ${com4_x}   ${com4_y}   ${com4_z} ${com5_x}   ${com5_y}   ${com5_z} ${comall_x}   ${comall_y}   ${comall_z}" file COM.data screen no
#-------------------------- Wave Propagation -------------------------
unfix        3temp
run          1000000
Memory usage per processor = 0.242359 Mbytes
Step Lx Pxx Pyy Pzz Temp COM1x[1] COM1x[2] COM1x[3] COM2x[1] COM2x[2] COM2x[3] COM3x[1] COM3x[2] COM3x[3] COM4x[1] COM4x[2] COM4x[3] COM5x[1] COM5x[2] COM5x[3] COMall[1 COMall[2 COMall[3 
    5000    423.08983    1334.3302     1378.821    725.29994     329.0678    1.6831806   -1.0481053   -19.203773   -209.98841  -0.82866467   -19.453089    1.6530183   -1.2807695    -8.776085   -210.00361  -0.72345241   -9.3128603    198.03429   -0.9733727   -19.330711  -0.73303886  -0.52323573   -418.55397 
    5100    423.08983    1375.0952    1333.4921    684.74034    329.45861    1.7129875  -0.96453363   -19.106521    -210.0229  -0.84768877   -19.393681     1.657851   -1.2004873   -8.6242432   -210.03618  -0.74663779   -9.2283178    198.03943  -0.92435505   -19.319663  -0.73350638   -0.5231829    -418.5559 
    5200    423.08983    1317.2003    1322.1861    650.97605    329.03476    1.6811455  -0.95882169   -19.067131   -209.99571  -0.85820385   -19.380847    1.6070519   -1.2061316   -8.5909311   -210.02188  -0.73233354   -9.2426832    198.01514  -0.93846861   -19.349257   -0.7339739  -0.52313006   -418.55782 
    5300    423.08983     1327.593    1292.5317    654.54008    328.69873    1.6609614  -0.96486485    -19.00997   -210.03276  -0.86048138   -19.374136    1.6481227   -1.2344201   -8.5082763   -210.09589  -0.71671954   -9.2392168     198.0523  -0.91365023   -19.311513  -0.73444141  -0.52307723   -418.55975 
    5400    423.08983    1240.4989    1268.6126    609.89614    328.77748    1.6342753   -0.9827256   -18.912954   -210.02262  -0.80491247   -19.419309    1.6016407   -1.2034023   -8.3427414   -210.00753  -0.66712978   -9.3128804    198.05603  -0.92479006   -19.276024  -0.73490893  -0.52302439   -418.56168 
    5500    423.08983    1226.8384    1198.6045    588.30662    329.16238    1.6921257  -0.95786489   -18.728598   -209.98227  -0.76406605    -19.42663    1.6729986   -1.1549532   -8.1344435   -209.97545  -0.62904502   -9.2794045    198.07591  -0.93227171   -19.241984  -0.73537645  -0.52297156    -418.5636 
    5600    423.08983    1198.6432    1192.5656    491.93611     328.9014    1.7784749  -0.97984541   -18.551298   -209.98176  -0.69043222   -19.428379    1.8166703   -1.1506648   -7.9955335   -209.96718  -0.54072829   -9.2857267    198.07082  -0.94350191   -19.286445  -0.73584397  -0.52291873   -418.56553 
    5700    423.08983    1173.4299    1228.8772    469.61613    328.39318    1.7847998   -1.0154687    -18.36181   -210.00234   -0.6805375   -19.404333    1.7861802   -1.2143837   -7.7611883   -209.99951  -0.51646739    -9.305942    198.07102  -0.94753273   -19.297759  -0.73631148  -0.52286589   -418.56745 
    5800    423.08983    1210.2507    1181.0718    454.12446    328.70992    1.7715984   -1.0021914   -18.219346   -209.93423  -0.66801332   -19.437723    1.7663145   -1.1547503   -7.6488994   -209.94941  -0.49503123   -9.3389151    198.07767  -0.91087989   -19.328157    -0.736779  -0.52281306   -418.56938 
    5900    423.08983    1217.9728    1180.9621    480.82135    328.29999     1.732266  -0.98801759   -18.170259   -209.94577  -0.71844396   -19.463816     1.709868   -1.2335153   -7.6306882   -209.92246   -0.5291587   -9.3445302    198.14295  -0.89243071   -19.307858  -0.73724652  -0.52276022    -418.5713 
    6000    423.08983    1197.9781    1197.6151    434.35027    328.70266    1.6899536   -1.0827743   -18.108667   -209.92666  -0.76643572   -19.463139    1.6280854    -1.378636   -7.5898864   -209.88248  -0.61228679   -9.3289142     198.1522  -0.84846325   -19.302667  -0.73771403  -0.52270739   -418.57323 
    6100    423.08983    1193.4372    1206.1875    457.00243    328.52394    1.7178901   -1.1207672   -18.131009   -209.87483  -0.79572811   -19.470157    1.6738217   -1.3907732    -7.653323   -209.84648  -0.69190133   -9.3318321    198.16133  -0.84736203   -19.314733  -0.73818155  -0.52265456   -418.57516 
    6200    423.08983    1194.3929     1234.835    479.90991    328.31459    1.7470045   -1.1262037   -18.026823   -209.87797   -0.8032004   -19.431931    1.7422691   -1.4811178   -7.5683246   -209.87634   -0.6893945   -9.3058287    198.20369   -0.8618274   -19.300334  -0.73864907  -0.52260172   -418.57708 
    6300    423.08983    1224.7485    1213.6689    438.91408    328.83056    1.8080341    -1.173141   -18.005825   -209.89495  -0.82169267   -19.377655    1.7486615   -1.4631045   -7.5442448   -209.88653   -0.6972614     -9.23464    198.26191    -0.884781   -19.343152  -0.73911658  -0.52254889   -418.57901 
    6400    423.08983    1209.8511    1205.3222    472.46739    328.76149    1.7897838   -1.1149881   -17.970908    -209.8681  -0.81082389   -19.370571    1.7708343   -1.4763717   -7.4237784   -209.84698  -0.72906168   -9.2412499    198.25973  -0.87959218   -19.323301   -0.7395841  -0.52249605   -418.58093 
    6500    423.08983    1184.7147    1217.3404    434.01629    328.68663    1.7396269   -1.0442701   -17.882327   -209.84456  -0.82336482   -19.399314    1.6445189    -1.434633   -7.3723892   -209.86813  -0.70192939   -9.2454102    198.23861  -0.88426179   -19.326747  -0.74005162  -0.52244322   -418.58286 
    6600    423.08983     1116.176    1178.4756    338.90825      328.467    1.6537186   -1.0156024   -17.771306   -209.88531  -0.83560943   -19.425754    1.5449415   -1.3125536   -7.2192637   -209.87485   -0.7185657    -9.255072    198.23138  -0.87931703   -19.342418  -0.74051914  -0.52239039   -418.58479 
    6700    423.08983    1138.5328    1141.9592    313.33074    328.44247    1.7287275  -0.99727305   -17.694536   -209.89356  -0.80282266   -19.438934    1.6700106   -1.2081745   -7.1236792   -209.89898  -0.68793117   -9.2823539    198.20678  -0.87511515   -19.399257  -0.74098665  -0.52233755   -418.58671 
    6800    423.08983    1097.3436    1091.8121    322.41706    328.51929    1.6822168   -1.0002042   -17.623998   -209.86655  -0.76758123   -19.452123    1.6805006    -1.191479   -7.1519729   -209.88854  -0.62202046   -9.3180997    198.21601  -0.86773251    -19.42125  -0.74145417  -0.52228472   -418.58864 
    6900    423.08983    1105.6907    1103.6908    262.71559    328.86019    1.7471873  -0.96808762   -17.577448   -209.87322  -0.78638456   -19.478393    1.7759871   -1.0890446   -7.0879376    -209.9048    -0.627809    -9.326462    198.19224  -0.88236495   -19.374509  -0.74192169  -0.52223189   -418.59056 
    7000    423.08983    1064.5004    1102.5688     263.3286    328.97543    1.7111657  -0.93403994    -17.52554   -209.87476  -0.78736343   -19.508788    1.7964775   -1.0102416   -7.0178806   -209.87865   -0.5966357   -9.3502876    198.17081  -0.94094076   -19.377108   -0.7423892  -0.52217905   -418.59249 
    7100    423.08983    1074.5598    1117.4071    232.59801    328.74442    1.7783664  -0.89387178   -17.428441   -209.91692  -0.77133103   -19.486194    1.8666347   -1.0759118    -6.935762   -209.89992  -0.59562787   -9.3639439    198.16045  -0.93127132   -19.416716  -0.74285672  -0.52212622   -418.59441 
    7200    423.08983    1083.1936    1122.4892    259.32874    328.83384    1.7644411  -0.96948178   -17.367573   -209.93071  -0.74535729   -19.505388    1.7530396   -1.1604926   -6.8179872   -209.93596  -0.63431233   -9.3455567     198.1446  -0.96991398   -19.446629  -0.74332424  -0.52207338   -418.59634 
    7300    423.08983    1077.7924    1042.1251    250.70564    328.93152    1.7958719   -1.0459257   -17.359846   -209.93072  -0.74333413   -19.581527     1.767378   -1.2673694    -6.808818   -209.96364  -0.62490045    -9.460066    198.14087  -0.97678541   -19.473943  -0.74379176  -0.52202055   -418.59827 
    7400    423.08983    1054.2103    1087.7648    224.65683     329.0314    1.7778971   -1.0128933   -17.292399   -209.96505  -0.74989296   -19.658031    1.7567221   -1.2525159   -6.7323955   -209.98404  -0.65879501   -9.5641199    198.12349  -0.90479837   -19.500926  -0.74425927  -0.52196772   -418.60019 
    7500    423.08983     1054.216     1119.686    205.23334    329.01298    1.7651175   -1.0272928   -17.265719   -209.95592  -0.74667734   -19.746818    1.7447281   -1.2704636   -6.6859076   -209.94235  -0.65633068   -9.5780882    198.10178    -0.924268   -19.540298  -0.74472679  -0.52191488   -418.60212 
    7600    423.08983    1036.9952    1101.1601    206.74251    328.90028    1.7363781   -1.0573332   -17.188197   -209.90389  -0.76585395   -19.791023    1.6970684   -1.2850574   -6.5881046   -209.87081  -0.66096382   -9.6526145    198.10541  -0.89828612   -19.544056  -0.74519431  -0.52186205   -418.60404 
    7700    423.08983    1042.7259    1102.3323    235.81563    329.05003    1.7605028   -1.1367251   -17.168375   -209.90149  -0.73554941   -19.817958    1.7681006   -1.3766919   -6.6890346   -209.85644  -0.58357465   -9.6822851    198.16056  -0.89466416   -19.612353  -0.74566182  -0.52180921   -418.60597 
    7800    423.08983    1094.0405    1067.0917    261.27965    328.73619    1.7725172   -1.1283264   -17.229823   -209.87787   -0.7869001   -19.839857    1.7997374   -1.4352968   -6.7185321   -209.86214  -0.61914959   -9.7401834    198.16917  -0.90720529   -19.689553  -0.74612934  -0.52175638    -418.6079 
    7900    423.08983     1073.891    1138.0594    250.58194    328.71723    1.7270922   -1.0918202   -17.246359   -209.86916  -0.75336394   -19.883207    1.7680964   -1.4398904   -6.7676246   -209.85363  -0.59998456   -9.7854222    198.14617  -0.95980033   -19.753909  -0.74659686  -0.52170355   -418.60982 
    8000    423.08983    1025.7923    1090.6258    240.95722    329.02517    1.6918806   -1.0431752   -17.346929   -209.87034  -0.72866538   -19.913299    1.7404455   -1.4036811   -6.8577886   -209.85794   -0.5885117   -9.8272929    198.16982  -0.94412879   -19.747585  -0.74706437  -0.52165071   -418.61175 
    8100    423.08983    1020.1626    1084.6432      220.212    328.64358    1.6944875   -1.0553139   -17.430989    -209.8817  -0.76980315    -19.95927    1.6793232    -1.382383   -6.8757392    -209.8633  -0.62572383   -9.8716477    198.17888  -0.91318296   -19.762977  -0.74753189  -0.52159788   -418.61367 
    8200    423.08983    1041.0577    1046.4556    202.26794    328.85568    1.6718807   -1.1036156   -17.485413   -209.86064  -0.74871537   -19.976069    1.5952372   -1.3117904   -6.9798798   -209.82035  -0.61856987   -9.8558257    198.18916  -0.94275901   -19.774896  -0.74799941  -0.52154504    -418.6156 
    8300    423.08983    1021.7096     1061.173    131.45197    328.72833    1.6734838   -1.1344862   -17.585807   -209.86674  -0.77412291   -19.952388    1.5795165   -1.3079755   -7.1185874   -209.84806  -0.65997812   -9.8132065    198.25273  -0.94771997    -19.77888  -0.74846693  -0.52149221   -418.61753 
    8400    423.08983    998.78841    1040.2296    171.58015     328.6835    1.6582258   -1.1533254   -17.636544    -209.8114  -0.80954505   -19.922633    1.5697663   -1.3000922   -7.1838809   -209.80424  -0.69527883   -9.7792999    198.25485  -0.94181266   -19.827301  -0.74893444  -0.52143938   -418.61945 
    8500    423.08983    1042.5023    1034.7088    152.72676    328.51598    1.6681392   -1.0777593   -17.528242   -209.79644  -0.89609824     -19.8464    1.5976149   -1.2762513   -7.0417748   -209.81189  -0.79095607   -9.6797402    198.28982  -0.90401632    -19.84738  -0.74940196  -0.52138654   -418.62138 
    8600    423.08983    996.11599    1014.0371    116.38272    329.04377    1.6548876   -1.1427311   -17.444396    -209.8032   -0.9094638   -19.863572    1.5716619   -1.3829502   -6.9375863   -209.79303  -0.78144429   -9.6651068    198.28162  -0.87747986   -19.791692  -0.74986948  -0.52133371    -418.6233 
    8700    423.08983    1030.8189    1013.1846    123.17192    328.41913    1.6945782   -1.1564278   -17.430012    -209.8232  -0.86691512   -19.877138    1.6371011    -1.417298   -6.9394987   -209.79156  -0.74839609   -9.7087575    198.29883    -0.883851    -19.69273  -0.75033699  -0.52128087   -418.62523 
    8800    423.08983    1012.0645    1013.9275    121.16876    328.96869    1.7209035   -1.1492045   -17.470446   -209.83501  -0.81937173   -19.810661     1.663234   -1.4207777   -6.9747466   -209.82014  -0.68374978   -9.6714811    198.26767   -0.9234781    -19.61592  -0.75080451  -0.52122804   -418.62715 
    8900    423.08983     1017.111    1021.9342     107.9647     328.6626    1.7418233   -1.1572223   -17.477174   -209.81635  -0.71026047   -19.781065    1.7464741   -1.4085858   -6.9173054   -209.79859  -0.57809822   -9.6821325    198.20719  -0.90745784   -19.577063  -0.75127203  -0.52117521   -418.62908 
    9000    423.08983    984.91558    1011.3723    74.434887    328.73234      1.73424   -1.2302236   -17.504222   -209.85614  -0.69675326   -19.715499    1.7310789   -1.5124159     -6.91506   -209.84321  -0.54730982    -9.586602    198.17655  -0.85358422   -19.517682  -0.75173954  -0.52112237   -418.63101 
    9100    423.08983    1025.3772    966.72412    94.491883     328.6684    1.6606637   -1.2024616   -17.532201    -209.8997   -0.7388466   -19.616754    1.5856376   -1.5452695   -6.9385683   -209.91983  -0.53863745   -9.4926899    198.15328  -0.82057332   -19.487288  -0.75220706  -0.52106954   -418.63293 
    9200    423.08983     984.9436    1010.9167     68.06336    328.95374     1.668393   -1.2783343   -17.530088   -209.92809  -0.77450964   -19.523947    1.5531277   -1.6078781   -7.0328063   -209.94442  -0.56823238   -9.3922893    198.13311  -0.82393851   -19.414736  -0.75267458   -0.5210167   -418.63486 
    9300    423.08983    951.85825    1000.0274     86.07538    328.82348    1.6203413   -1.2153147   -17.591887   -209.94975  -0.78168828   -19.455306    1.5573114   -1.5805604   -7.0931244   -209.96239  -0.63292411   -9.3099074      198.141  -0.84809697   -19.372919   -0.7531421  -0.52096387   -418.63678 
    9400    423.08983    998.44267    1023.0235    95.676606    328.55851    1.5920665    -1.188577   -17.642507     -209.958  -0.82832673   -19.416366    1.5171461   -1.5131731    -7.171563   -209.98647  -0.68160411   -9.2624513    198.15197  -0.89172493   -19.318269  -0.75360961  -0.52091104   -418.63871 
    9500    423.08983     989.3219    977.38738    42.349329    329.21783     1.575328   -1.1031792   -17.726162   -209.94465  -0.87774535   -19.388866    1.5114826    -1.392269   -7.3050694   -209.95959  -0.75363639   -9.2345206    198.14892  -0.93440232   -19.239362  -0.75407713   -0.5208582   -418.64064 
    9600    423.08983     942.8998    986.91212     38.63435    329.32942     1.556442  -0.99219359   -17.809818   -209.95374  -0.86267313   -19.413084    1.5408821   -1.2290724   -7.3375344   -209.97923  -0.74677037    -9.239337    198.17518  -0.98409952   -19.228311  -0.75454465  -0.52080537   -418.64256 
    9700    423.08983    923.40575    991.24691   -34.283844    329.39365    1.5623412  -0.97828204     -17.8765   -209.92148  -0.85623451   -19.361826    1.5665912    -1.262889   -7.3820796   -209.90828  -0.72451506   -9.1912457    198.18372    -1.021011   -19.206724  -0.75501216  -0.52075254   -418.64449 
    9800    423.08983    953.66044    974.84145   -35.558586    328.81142     1.599022  -0.94988199   -17.896593   -209.89934  -0.85886543   -19.287188    1.6300422   -1.1375914   -7.4633222   -209.89615  -0.74759933   -9.1698703    198.17328   -1.0138069   -19.196455  -0.75547968   -0.5206997   -418.64641 
    9900    423.08983    909.27228    934.85342   -78.140798    329.26872     1.593816  -0.94037621   -17.949961   -209.89042    -0.881645   -19.276642    1.5919536   -1.0821745   -7.5214538   -209.87702   -0.7657604   -9.1404228    198.15623  -0.99218576   -19.178572   -0.7559472  -0.52064687   -418.64834 
   10000    423.08983    894.16418    969.40016   -95.230919    328.90361    1.6078154  -0.98579914   -18.000305    -209.9169   -0.8930215   -19.244452    1.5619852   -1.1291391   -7.6125017   -209.86752  -0.79730944   -9.0982165    198.16324   -1.0242001    -19.11778  -0.75641472  -0.52059403   -418.65026 
   10100    423.08983    896.64702    919.13481   -129.65431    329.37223    1.6867116  -0.97093429   -18.050469    -209.9526  -0.91668772   -19.221128    1.6656854   -1.1814283   -7.6216592   -209.87961   -0.8005467   -9.0864286    198.14845   -1.0288392   -19.047776  -0.75688223   -0.5205412   -418.65219 
   10200    423.08983    891.92939    930.14851   -157.56728    329.59094    1.7200752  -0.95305311   -18.019772   -209.98038  -0.95421081   -19.178734    1.6958114   -1.1975893   -7.5575169   -209.93054  -0.85191428    -9.031717    198.12614   -1.0058451   -18.950587  -0.75734975  -0.52048837   -418.65412 
   10300    423.08983    897.36403    921.74212   -133.32247    328.73196    1.6971344   -0.9880182   -18.077075   -209.98014  -0.99293792   -19.112901    1.6881902   -1.2685478   -7.5731172   -209.95461  -0.86079504   -8.9678089     198.0666  -0.99489691   -18.904656  -0.75781727  -0.52043553   -418.65604 
   10400    423.08983    850.91066    870.63238   -198.64258    329.49117     1.683643  -0.89366189   -18.113177    -209.9906  -0.97902135   -19.028377    1.6876907   -1.1307036   -7.6057689   -209.95509  -0.81061213   -8.8730156     198.0678  -0.94729921   -18.872136  -0.75828478   -0.5203827   -418.65797 
   10500    423.08983    867.87424    864.95216   -178.80849    328.83657    1.7280887   -0.8714568   -18.176897   -209.97837  -0.92751397   -18.965968    1.7622675   -1.0900966   -7.7186213   -209.98059  -0.73199339   -8.8193803    198.05478  -0.99341097   -18.833936   -0.7587523  -0.52032986   -418.65989 
   10600    423.08983    834.00952    849.33383   -275.17206    329.06189    1.7033451  -0.92764012   -18.286505   -209.98305  -0.90191802    -18.95732    1.7302846   -1.1580695   -7.8620071   -209.99434  -0.76577701   -8.8267392     198.0809   -1.0036767   -18.825811  -0.75921982  -0.52027703   -418.66182 
   10700    423.08983    781.41565    803.17292   -327.45172     328.9601    1.6569214  -0.96818711   -18.184679    -209.9447  -0.91266326   -18.941926    1.6536522   -1.1678875   -7.7149729    -209.9485  -0.80140423   -8.8017123    198.11378   -1.0338998   -18.788553  -0.75968733   -0.5202242   -418.66375 
   10800    423.08983    753.84319    715.80761   -371.37891    329.28937    1.6578718   -0.9996925   -18.297812   -209.95005  -0.92044625   -18.881151    1.6286439   -1.2625097   -7.8337708   -209.95088  -0.77435771   -8.7430269    198.11619   -1.0796055   -18.807811  -0.76015485  -0.52017136   -418.66567 
   10900    423.08983    693.52331    759.63798   -465.85472    328.98411    1.6270371  -0.95578926   -18.312862   -209.93972  -0.88617964   -18.846021    1.6170471   -1.2718179    -7.836316   -209.92674  -0.68845673   -8.7020588    198.12015   -1.0923316   -18.801121  -0.76062237  -0.52011853    -418.6676 
   11000    423.08983    689.78407     711.9444   -450.78411    328.57552     1.595436  -0.91808664   -18.355967   -209.88385  -0.87510811   -18.835734    1.5535085   -1.2381535   -7.8369683    -209.8762  -0.69260204   -8.7048725    198.13287   -1.1121651   -18.739968  -0.76108989  -0.52006569   -418.66952 
   11100    423.08983    600.26699    708.11127   -584.66734    329.36311    1.6266196    -0.916118   -18.339022   -209.88246  -0.90860083    -18.83629    1.5668959    -1.217552   -7.8083597   -209.88015   -0.8024489   -8.7231505    198.11063   -1.0845157   -18.721033   -0.7615574  -0.52001286   -418.67145 
   11200    423.08983    643.98678    639.40634   -609.60552    328.55862    1.6368165  -0.85725181   -18.332626   -209.91189  -0.93035723   -18.816349    1.5426481   -1.2053512   -7.8266635   -209.90425  -0.87323509   -8.6921421    198.12038   -1.0274877   -18.659532  -0.76202492  -0.51996003   -418.67337 
   11300    423.08983    557.88409    599.02891   -675.06994     329.0021    1.6205961  -0.85278688   -18.413457   -209.90372  -0.89813679   -18.818149    1.5698877    -1.149768     -7.95898   -209.93941  -0.82724066   -8.6942296    198.14347   -1.0027006   -18.673183  -0.76249244  -0.51990719    -418.6753 
   11400    423.08983    580.29633    605.14239   -699.37122    328.47391    1.5900386  -0.90115714   -18.450351    -209.9271  -0.88887051   -18.810247    1.5466542   -1.1904794   -8.0670147   -209.92681  -0.79693201   -8.6920175    198.11182   -1.0135772   -18.707492  -0.76295995  -0.51985436   -418.67723 
   11500    423.08983    555.27919      536.174   -742.36511    329.02022    1.5924161    -0.839584    -18.42669   -209.95531  -0.88258168   -18.779001    1.5568697   -1.0489441   -8.0399748   -209.93113  -0.75168587   -8.6071493    198.07765   -1.0327246   -18.769241  -0.76342747  -0.51980152   -418.67915 
   11600    423.08983    487.98871    592.55122    -733.0557    328.98262    1.5499478  -0.87464692   -18.427087   -209.94301  -0.81815577   -18.796957    1.5299078   -0.9930468   -7.9771152   -209.92729  -0.67093604   -8.6601606    198.05545   -1.0531756    -18.73767  -0.76389499  -0.51974869   -418.68108 
   11700    423.08983      575.423    516.45838   -768.98953     329.0391      1.55173   -0.8773375   -18.413538   -209.94842  -0.81609314   -18.840062     1.527447  -0.98970025   -7.9497282   -209.96667  -0.70380147   -8.7252849      198.076   -1.0245648   -18.737698  -0.76436251  -0.51969586     -418.683 
   11800    423.08983    512.52977    582.71152   -746.08248    328.78121    1.6163501  -0.88036499   -18.450661   -209.90408  -0.87271123   -18.860948    1.5867745   -1.0568232   -7.9652816   -209.90493  -0.74012612   -8.7905246    198.06038   -1.0047995   -18.774736  -0.76483002  -0.51964302   -418.68493 
   11900    423.08983    506.09026    637.10923   -749.99908    328.74086    1.6290644  -0.86441367   -18.438097   -209.91742   -0.8829152   -18.921878    1.5859274   -1.0427485   -7.9357776   -209.92759  -0.75745283   -8.8022834    198.08844  -0.90542458   -18.787818  -0.76529754  -0.51959019   -418.68686 
   12000    423.08983     510.4867    604.86831   -691.50418    328.95105    1.6116849  -0.78057012   -18.431062   -209.89654  -0.85235401   -18.948336     1.549056   -1.0302124   -7.9240622    -209.8662  -0.71088134   -8.8225474    198.13118  -0.88216805    -18.84188  -0.76576506  -0.51953736   -418.68878 
   12100    423.08983    555.23583    620.83076   -640.77478    328.91181    1.5936078  -0.78527248   -18.394012   -209.85445  -0.81040805   -18.974098     1.500306   -1.0472604   -7.8600146   -209.83453  -0.68656741   -8.8490042    198.14784  -0.86905361   -18.887404  -0.76623257  -0.51948452   -418.69071 
   12200    423.08983    589.39882    662.07234   -577.58129    329.02853    1.5815563  -0.90909132    -18.40436   -209.85202   -0.7650829   -19.046664    1.4790286   -1.2426149   -7.8808263   -209.81371  -0.62764756    -8.942162    198.14415   -0.8348571   -18.925665  -0.76670009  -0.51943169   -418.69263 
   12300    423.08983    614.87453    723.96177   -536.20201    328.82957    1.5853823  -0.91731683   -18.402025   -209.87287  -0.71498681   -19.126839    1.4904384   -1.2241412   -7.8839646   -209.86344  -0.53931438   -8.9645745    198.12732  -0.83100722   -18.924734  -0.76716761  -0.51937885   -418.69456 
   12400    423.08983    671.33761    704.07571   -493.05762    329.40491    1.5993952  -0.84691638   -18.362892    -209.8712  -0.70770668   -19.161939    1.5307928   -1.1466891   -7.9129547   -209.84728  -0.50941849   -8.9901872    198.11563  -0.77869536   -18.940475  -0.76763512  -0.51932602   -418.69648 
   12500    423.08983    674.25998     791.2331   -417.98905     328.4569    1.6257355  -0.92670316   -18.319412   -209.92633  -0.67393486   -19.144168     1.587325   -1.2140974   -7.9037302   -209.92034  -0.47190579   -9.0457011    198.11155  -0.77422156   -18.985678  -0.76810264  -0.51927319   -418.69841 
   12600    423.08983    702.26225    766.50162   -399.03799      328.684     1.643995   -0.9831233   -18.278043   -209.92568  -0.68564539   -19.144723    1.6477839   -1.2558565   -7.8897633   -209.88852  -0.50625645   -9.0426718    198.06766  -0.74932534   -18.978055  -0.76857016  -0.51922035   -418.70034 
   12700    423.08983    658.48223    758.04512   -456.74939    329.47537    1.6451225  -0.90737921   -18.272888   -209.90983  -0.69595265   -19.093547    1.6180847    -1.123206   -7.8930052    -209.9087  -0.57609067   -9.0291317    198.05312   -0.7441315   -19.006106  -0.76903768  -0.51916752   -418.70226 
   12800    423.08983    686.05544    748.40653   -449.71055    329.12905    1.6392639  -0.90015533    -18.23465   -209.94647  -0.69016139   -19.075664    1.6491721   -1.1486178   -7.7692955   -209.92997  -0.57555427   -8.9688977    198.07116  -0.76106615   -19.013008  -0.76950519  -0.51911468   -418.70419 
   12900    423.08983    642.77323    707.59939   -490.37856    329.51056    1.6767859   -0.8849553   -18.250679   -209.96286  -0.66168764   -19.060033     1.733615   -1.1117502   -7.7082517   -209.97762  -0.54548869   -8.9403334     198.0482  -0.79649791   -18.947934  -0.76997271  -0.51906185   -418.70611 
   13000    423.08983    661.66354    742.97917   -434.11211    329.32284    1.6654825  -0.84208676   -18.177376   -209.98299  -0.66537596   -19.064752    1.7019831   -1.0083387   -7.7011407   -209.99639  -0.54852122   -8.9124566    198.05335  -0.81384091   -18.944242  -0.77044023  -0.51900902   -418.70804 
   13100    423.08983    722.66146    711.08603   -434.52268    329.03269    1.6595953  -0.82955793   -18.097681   -209.99137  -0.64962996   -19.004486    1.6890463   -1.0172907   -7.6806217     -209.984  -0.49189463   -8.8322842    198.05099  -0.82339913   -18.963157  -0.77090774  -0.51895618   -418.70997 
   13200    423.08983    683.33529    779.25475   -360.77542    328.58796    1.7040657  -0.82793377   -18.039692   -210.02033  -0.66513896   -19.041961     1.698462   -1.0277343   -7.5923179   -210.01035  -0.49849023   -8.8762199    198.05149  -0.84008172    -18.95445  -0.77137526  -0.51890335   -418.71189 
   13300    423.08983    709.56841    815.37277   -396.68391    329.19908    1.7607818  -0.85140695   -18.068314   -210.03126  -0.68498506   -18.995932    1.7482467   -1.0977709   -7.5868969   -210.02445  -0.54836877   -8.8615945     198.0523   -0.8845373    -18.93826  -0.77184278  -0.51885051   -418.71382 
   13400    423.08983    765.96252    822.69471   -313.42249    328.91554    1.7570617  -0.89850543   -18.106771   -210.02565  -0.66330658   -19.003994    1.7586419     -1.18044   -7.6078041   -210.02321   -0.5375974   -8.8597649    198.05082  -0.83627747   -18.939804  -0.77231029  -0.51879768   -418.71574 
   13500    423.08983    782.02764    824.72187   -301.34357    329.29524    1.7396013  -0.93794727   -18.075843   -210.00513  -0.68570817   -18.987728    1.7028572    -1.195137   -7.6092988   -210.01399   -0.5163565   -8.8278731      198.027  -0.77022813   -18.900147  -0.77277781  -0.51874485   -418.71767 
   13600    423.08983     754.2932    837.86373   -291.63045      329.422    1.7175432    -1.018717   -17.990881   -209.99442  -0.70324415   -19.013602    1.7002628   -1.2586742   -7.5404949   -210.00898  -0.53521396   -8.8585326    198.01459  -0.76612141   -18.840883  -0.77324533  -0.51869201   -418.71959 
   13700    423.08983    763.45248    873.32243   -235.98005    329.18015    1.7453179   -1.0450216   -18.008668   -209.99959  -0.60727184   -19.017291    1.7038382   -1.2476541    -7.535614    -209.9914  -0.47147145   -8.8589631    198.03033  -0.78933186   -18.877389  -0.77371285  -0.51863918   -418.72152 
   13800    423.08983    823.82939    859.83191   -256.59183    329.11868    1.7037431   -1.0636307   -18.015465   -210.00911  -0.61730749   -19.038441    1.6282479    -1.246122   -7.5891601   -209.97138   -0.4774259   -8.9042912    198.01622   -0.7864538   -18.880634  -0.77418036  -0.51858634   -418.72345 
   13900    423.08983    819.19976    887.50409   -227.46574    328.96203    1.6878394   -1.1051052   -18.042268   -210.00054  -0.64017897   -19.096213     1.625597   -1.2979867   -7.6537251   -209.97227  -0.51009329   -8.9481449    198.04055  -0.75573773   -18.894068  -0.77464788  -0.51853351   -418.72537 
   14000    423.08983    814.62777    846.54535   -264.76467    329.30021    1.6522861   -1.1577443   -18.036092    -209.9773  -0.67323906   -19.101367    1.6440328    -1.429983   -7.6340537   -209.99294  -0.56893414   -8.9821027    198.02898  -0.76279125   -18.891901   -0.7751154  -0.51848068    -418.7273 
   14100    423.08983    782.03512    847.62697    -249.4119    329.16798    1.6484057    -1.125213   -18.001023   -210.01502  -0.66962729   -19.080109    1.6512037   -1.4439571   -7.6373869   -209.99762  -0.58954346   -8.9731609    198.06158  -0.81380706   -18.919223  -0.77558291  -0.51842784   -418.72922 
   14200    423.08983    812.87758    806.45556   -255.39441     329.2705     1.612894   -1.1142233   -17.959867   -210.02091  -0.68058385    -19.07098     1.637364   -1.3750433    -7.575684   -210.00849  -0.56494926   -8.9261498    198.04324  -0.82000922    -18.94678  -0.77605043  -0.51837501   -418.73115 
   14300    423.08983    806.16679    816.24808   -306.63756    329.70316    1.6255085   -1.1320848     -17.9192   -210.03048  -0.67055268    -19.03293    1.6183693   -1.4397415   -7.4884672   -210.05732  -0.57221213   -8.8959215    198.05898   -0.8494193   -18.932491  -0.77651795  -0.51832217   -418.73308 
   14400    423.08983    820.01987    864.61614   -217.28663    328.83938    1.6104986   -1.1292362   -17.887767   -210.00694  -0.71451165   -19.013869    1.5579395   -1.4237949   -7.4728541   -210.02624  -0.63778245     -8.83401    198.02975  -0.82133743   -18.943081  -0.77698547  -0.51826934     -418.735 
   14500    423.08983    800.89299    864.74409   -262.04118    329.19223    1.6166349    -1.099773   -17.854207   -209.98229  -0.70406045   -19.043535    1.5493457   -1.3547667   -7.3875049   -209.95814  -0.60491019   -8.8485908    198.06426  -0.84069299   -18.972087  -0.77745298  -0.51821651   -418.73693 
   14600    423.08983    814.39883    844.66391   -270.35084    329.52595    1.5869867   -1.0601016   -17.863576   -209.98957  -0.67921834   -19.038325      1.48389   -1.2909471   -7.3792825   -209.96426   -0.5115841   -8.9141057    198.09033   -0.8064345    -18.97583   -0.7779205  -0.51816367   -418.73885 
   14700    423.08983    834.28176      847.033   -220.10048    329.32878    1.5229261   -1.0948649   -17.902631   -209.98259  -0.62945978   -19.115356    1.4227622   -1.3745303   -7.4836759    -209.9393  -0.47370405   -8.9783415    198.09091  -0.83174014   -18.968735  -0.77838802  -0.51811084   -418.74078 
   14800    423.08983    851.93681    898.30014   -159.11001    329.05083    1.4892435   -1.1658562   -17.854648   -209.94809  -0.64949927    -19.15391    1.4374955   -1.4582017   -7.4296239   -209.92083  -0.48181877   -9.0280694     198.0975  -0.80879068   -18.973645  -0.77885553  -0.51805801   -418.74271 
   14900    423.08983    871.71658    878.73525   -159.68623    329.75529    1.5154436   -1.2354109   -17.851666   -209.92709  -0.65371885   -19.119024    1.4592113   -1.4581503   -7.4968103    -209.9383  -0.52258079   -8.9685894    198.10984  -0.73061707   -19.021496  -0.77932305  -0.51800517   -418.74463 
   15000    423.08983     881.8985    950.03801   -158.69443    329.10602    1.5449198   -1.1966267   -17.812913   -209.95772  -0.62857887   -19.192228    1.4758745    -1.427029   -7.4409828   -209.93414  -0.50146511   -9.0383439    198.13881  -0.71203242   -19.049619  -0.77979057  -0.51795234   -418.74656 
   15100    423.08983    912.16203    912.53164   -97.427184    329.25238    1.5340701   -1.1609337    -17.81277   -209.94191  -0.59881369   -19.223786    1.4907129   -1.3998778   -7.4453369   -209.95018  -0.48426907   -9.0412249     198.1307    -0.765917   -19.081191  -0.78025808   -0.5178995   -418.74848 
   15200    423.08983    917.18571    934.82087   -96.864065    329.38691    1.4861132   -1.0496889   -17.741351   -209.94053  -0.56745851   -19.230399    1.4418653   -1.3641592   -7.3370099   -209.92134  -0.41274442   -9.0800091    198.12028  -0.73502507   -19.151862   -0.7807256  -0.51784667   -418.75041 
   15300    423.08983    939.34314    940.41181   -103.99844    328.95865    1.4767326  -0.99583455   -17.746152   -209.91021   -0.5763928    -19.28975    1.5135688   -1.2530559     -7.31209   -209.92226  -0.41495671     -9.10952    198.09958  -0.68218726   -19.250152  -0.78119312  -0.51779384   -418.75233 
   15400    423.08983    952.24261    950.97469    -94.76468    329.27492    1.5100363  -0.96430433   -17.782065   -209.98301  -0.57954673   -19.353718     1.583219   -1.2905957   -7.3356932   -209.96658  -0.39292287   -9.1899655    198.14744  -0.65252406   -19.222262  -0.78166064    -0.517741   -418.75426 
   15500    423.08983    940.65923    955.45783   -85.468951    329.21658    1.5438035  -0.98926548   -17.757339   -209.97502  -0.57101541    -19.38603     1.599279   -1.2416404   -7.3048273   -209.97301  -0.40925706   -9.2385744    198.09804   -0.6613193   -19.223421  -0.78212815  -0.51768817   -418.75619 
   15600    423.08983    925.72129    985.94614   -62.961672     329.3191    1.5635298  -0.99289687   -17.744209   -210.00606  -0.59488991   -19.404723     1.546848   -1.2425872   -7.2820022   -210.00065  -0.45621577   -9.2345662    198.06531  -0.70135798   -19.267005  -0.78259567  -0.51763533   -418.75811 
   15700    423.08983    918.48231    987.27871   -38.465936    329.16071    1.5506747  -0.93259181   -17.833001   -210.01516  -0.62689655   -19.428918    1.4722756   -1.1230784   -7.4260664   -210.01345  -0.46396586   -9.3172176    198.04003  -0.70187194   -19.279964  -0.78306319   -0.5175825   -418.76004 
   15800    423.08983    961.34856    951.58159   -51.988891    329.67735     1.570733  -0.86969678   -17.879771   -210.01332  -0.65687776   -19.438497    1.4885421   -1.0684152   -7.5426595   -210.02709   -0.4950754   -9.3080998    198.03111  -0.75115478   -19.309841   -0.7835307  -0.51752967   -418.76196 
   15900    423.08983    909.19982    1001.6921   -19.355258    329.58746    1.5704239  -0.83776057   -17.994499   -210.02888  -0.68556931    -19.53702    1.4971118   -1.0898717   -7.5821858   -210.00037  -0.53815957   -9.3889115    198.02694   -0.7471856   -19.345055  -0.78399822  -0.51747683   -418.76389 
   16000    423.08983    933.13194    1013.5128     -20.0205    329.65546    1.5541411  -0.78171199   -18.067406     -210.049  -0.66456182   -19.552051    1.5377962  -0.97427319   -7.6563058   -210.02201  -0.55871635   -9.4351267    198.01969  -0.77752389   -19.382742  -0.78446574    -0.517424   -418.76582 
   16100    423.08983    970.29004    960.77569   -25.920328    329.73521    1.5152856  -0.75831051   -18.093066   -210.02262  -0.65307199   -19.560962    1.5487083  -0.91926095   -7.7062293   -209.97879  -0.53038858   -9.3783495    198.00967   -0.8085296   -19.461842  -0.78493325  -0.51737116   -418.76774 
   16200    423.08983    934.04992     1012.139   -20.556586     329.4283     1.508319  -0.69392617   -18.103856   -210.04699  -0.66262957   -19.567809     1.456814  -0.89496736   -7.6744923   -210.01357  -0.53375364   -9.3583372    198.00377  -0.83010218   -19.506149  -0.78540077  -0.51731833   -418.76967 
   16300    423.08983    951.45186    1043.5326    14.918555    329.14851    1.5093673  -0.70269198   -18.187395   -210.04316  -0.68117216   -19.643539    1.4336477  -0.90615932    -7.756676   -210.06483  -0.53290631   -9.4879092     197.9977  -0.83806561   -19.500199  -0.78586829   -0.5172655   -418.77159 
   16400    423.08983    964.63487    1030.4817   -6.6963093    329.68899    1.5289563  -0.69211398   -18.162348   -210.04632  -0.71327984   -19.637905    1.4198456  -0.83754461   -7.7524994   -210.06851  -0.57784218   -9.4994192    198.05043  -0.77165953   -19.539157  -0.78633581  -0.51721266   -418.77352 
   16500    423.08983    948.88882    1001.3788    37.705607     329.8209    1.5522195  -0.71717782   -18.128907   -210.02554  -0.71651602   -19.663847    1.5208736  -0.92541485   -7.7262114   -210.05008  -0.61372586   -9.5733299    198.01611  -0.75820288    -19.51595  -0.78680332  -0.51715983   -418.77544 
   16600    423.08983    1008.1607    1038.1049     77.73002    329.30006    1.5594247  -0.73890191   -18.167565   -210.05313  -0.70852769   -19.675534    1.5198804  -0.90867365   -7.7207594   -210.08686  -0.64624631   -9.5724517    197.97829  -0.75187095   -19.505966  -0.78727084  -0.51710699   -418.77737 
   16700    423.08983    1000.6687     1011.683    46.561689    330.41121     1.590369  -0.69906637   -18.238062   -210.05694   -0.6619216   -19.678852    1.6015979  -0.84590592   -7.8026624   -210.04902  -0.56155332   -9.5475821    197.94817  -0.77118264    -19.48911  -0.78773836  -0.51705416    -418.7793 
   16800    423.08983    1018.0636    1052.0142    104.18228     329.5781     1.594027  -0.70660672   -18.276138   -210.08217  -0.68650937   -19.659578    1.6307313  -0.85988168   -7.9204017   -210.04391  -0.57539531   -9.5293959    197.94678  -0.75957623   -19.450812  -0.78820587  -0.51700133   -418.78122 
   16900    423.08983    963.83606    1087.3898    103.57202    330.09656    1.5923112  -0.73428544   -18.243003   -210.09307  -0.65127259   -19.624436    1.5875833   -0.9640584   -7.8574233   -210.06556  -0.55259262   -9.4899651    197.95751  -0.78693321    -19.43494  -0.78867339  -0.51694849   -418.78315 
   17000    423.08983    1035.5473    1085.1546    134.99588    329.58457    1.5994489  -0.68007678   -18.314617   -210.11537  -0.59438733   -19.601018    1.5518795  -0.90312365   -7.9288343    -210.0722  -0.46669542   -9.4140421    197.97303  -0.78276435   -19.438796  -0.78914091  -0.51689566   -418.78507 
   17100    423.08983    1020.3758    1116.0908    175.28954    329.72483    1.6013583   -0.6775505   -18.361333   -210.10511  -0.63955109   -19.567568     1.524105  -0.92128541   -7.9319597   -210.09607  -0.49412091   -9.3812392     197.9542  -0.82077017   -19.435617  -0.78960843  -0.51684283     -418.787 
   17200    423.08983    1053.7027    1149.5481    205.04913    329.58289    1.5597144  -0.62950443   -18.403027    -210.0606  -0.64003607   -19.586535    1.5005695  -0.97585988   -7.9735195   -210.07126  -0.46034642   -9.4014284    198.00095  -0.80785389    -19.45563  -0.79007594  -0.51678999   -418.78893 
   17300    423.08983    1028.3676    1122.1395    227.30064    329.95029    1.5340093  -0.63460783   -18.453153   -210.04011  -0.67212658   -19.594801    1.4399613   -1.0039562   -8.0754576    -210.0801  -0.52835848    -9.437948    198.04044  -0.77778149   -19.481373  -0.79054346  -0.51673716   -418.79085 
   17400    423.08983    1113.5486    1195.0376    286.09481    329.69091    1.5249288  -0.66362893   -18.477048   -210.01084  -0.70022629    -19.61324    1.4794175  -0.97359269   -8.0924173   -210.00647  -0.52050885   -9.4836511    198.01768  -0.76570177   -19.516864  -0.79101098  -0.51668432   -418.79278 
   17500    423.08983    1193.3013    1217.2606    338.22332    329.77201    1.5391179    -0.660619   -18.533826   -209.96926  -0.72205538   -19.669548    1.4661666  -0.99280448   -8.1170881    -209.9517  -0.54868681   -9.5614851    197.98321  -0.71429651   -19.564195  -0.79147849  -0.51663149    -418.7947 
   17600    423.08983    1183.4812     1239.791    398.53143    329.71803    1.5443392  -0.67564879   -18.605463   -209.97767   -0.7609851   -19.688192    1.4923554  -0.95177289   -8.2238831   -209.93217  -0.62466758   -9.5610368    198.00724  -0.73730955    -19.52064  -0.79194601  -0.51657866   -418.79663 
   17700    423.08983    1203.0844    1223.5904    436.48464    330.08289    1.5114472  -0.60599582   -18.681742   -209.98169  -0.71304287   -19.731358    1.4477879  -0.79556946   -8.2707096    -209.9779  -0.56137606    -9.589821    198.03579  -0.71248321   -19.590416  -0.79241353  -0.51652582   -418.79855 
   17800    423.08983    1229.2992    1327.6572    542.54209    329.73528    1.5029884  -0.61202267   -18.738604   -209.95576  -0.71569265   -19.723644    1.4195015  -0.74298736   -8.3443371   -209.96148  -0.58999729   -9.5752544    198.06863  -0.73672213   -19.625867  -0.79288104  -0.51647299   -418.80048 
   17900    423.08983    1284.4971    1369.2455    605.34609    330.12215    1.4814992  -0.61531874   -18.857035   -209.94623  -0.71567313   -19.729714    1.4413123  -0.77418003   -8.4775492   -209.93823  -0.59896605     -9.59876    198.07736  -0.77877396   -19.642484  -0.79334856  -0.51642015   -418.80241 
   18000    423.08983    1303.0701     1390.442    666.51785    330.05711    1.5113324  -0.66249399   -18.881685   -209.95453  -0.71948796    -19.74125    1.5050305  -0.88829004   -8.5141965   -209.94172   -0.5992094   -9.6147137    198.07838  -0.78805781   -19.635717  -0.79381608  -0.51636732   -418.80433 
   18100    423.08983    1330.0165     1381.315     684.3281    330.48696    1.5182204  -0.69461199   -18.948535   -209.96507   -0.7726549   -19.736645    1.5183738  -0.93248091   -8.5507626    -209.8973  -0.63433471   -9.6219799    198.04872  -0.81481577   -19.568234   -0.7942836  -0.51631449   -418.80626 
   18200    423.08983    1327.9354     1408.575    673.33182    330.66835    1.5556295  -0.65395998   -18.990464   -209.97987  -0.75791939   -19.750723    1.5459054  -0.92996133   -8.5992787   -209.93105  -0.64112522    -9.638852    198.02613  -0.82583501   -19.551183  -0.79475111  -0.51626165   -418.80818 
   18300    423.08983    1431.1084    1403.1688    718.18499    329.98089    1.5088258  -0.62722269   -19.013859   -209.96538  -0.71035132   -19.705826    1.4720559  -0.86260025   -8.6673423   -209.98064  -0.59930149   -9.5214731    198.02861  -0.83491458   -19.469083  -0.79521863  -0.51620882   -418.81011 
   18400    423.08983    1397.5887    1407.8207    716.27757    330.18105    1.5118244  -0.62187234    -19.05146   -209.96457  -0.64805943   -19.682553    1.4373739   -0.8679455   -8.6871009   -209.98073  -0.50113245   -9.5537754    198.02753  -0.89822584    -19.48714  -0.79568615  -0.51615598   -418.81204 
   18500    423.08983    1352.6281    1342.7382    712.92467    330.47519    1.4453757  -0.67578418   -19.085543   -209.97903  -0.61923164   -19.606878    1.3874422  -0.93214827   -8.6679084   -209.98783  -0.47623238   -9.5047036    198.03667  -0.88050885   -19.482108  -0.79615366  -0.51610315   -418.81396 
   18600    423.08983    1320.3717    1377.8601    699.12554    330.57357    1.4589735  -0.63832866   -19.097937   -209.98794  -0.65465917   -19.568457    1.3895764  -0.89621221   -8.7576134   -209.99235  -0.50664896   -9.4743361    198.03042  -0.86869759   -19.406906  -0.79662118  -0.51605032   -418.81589 
   18700    423.08983    1328.4811    1384.3536    658.67579     330.0351    1.4412582  -0.62237379    -19.14695   -209.99279  -0.69502173   -19.534798    1.4164581  -0.86398953   -8.7845003   -209.97629  -0.54199918   -9.4362923    198.03134  -0.84546577   -19.378726   -0.7970887  -0.51599748   -418.81781 
   18800    423.08983    1291.6513    1360.1165    601.91021    329.94681    1.4440855  -0.58788097   -19.113019   -209.97735  -0.77457812   -19.437303    1.4156437  -0.85712312     -8.71641   -209.92692  -0.64100393   -9.2990189     198.0147  -0.83372598    -19.35922  -0.79755621  -0.51594465   -418.81974 
   18900    423.08983    1249.1849    1307.8036    527.23445     329.9753    1.4726575  -0.65384057   -19.072779   -209.95576  -0.77331904   -19.339575    1.4533477  -0.95251777   -8.7203892   -209.92476  -0.64831941   -9.1912909    198.07133  -0.87391454   -19.270054  -0.79802373  -0.51589181   -418.82166 
   19000    423.08983    1215.9082    1293.7976    463.89399    330.10898    1.4608483  -0.70359499   -19.078718   -209.94034  -0.73175812   -19.328755    1.4612556  -0.96216545   -8.6777158   -209.92213  -0.60168154   -9.1788487    198.03703  -0.91657415   -19.132996  -0.79849125  -0.51583898   -418.82359 
   19100    423.08983    1221.5502    1268.3378    456.07594    329.83631    1.4933175  -0.78452695   -19.098191   -209.97663  -0.69333542   -19.220089    1.4576865  -0.95794867   -8.6678729   -209.99105  -0.59219131   -9.0640605    198.03764  -0.89502314   -19.005868  -0.79895877  -0.51578615   -418.82552 
   19200    423.08983    1198.7707    1243.5125    432.74788    329.87184    1.5183391  -0.81197685   -19.096202   -209.99151  -0.69776924   -19.137627    1.4245329  -0.96364165   -8.7574619   -210.00263  -0.58419111   -8.9758257    198.05539  -0.85076182   -18.998874  -0.79942628  -0.51573331   -418.82744 
   19300    423.08983    1186.2845    1246.9131    434.34041      329.759    1.5227124  -0.79750684   -19.111917   -209.97164  -0.67268334   -19.053072    1.4527785   -1.0181106   -8.7201791    -209.9321  -0.54902948   -8.8803263    198.04285  -0.81165669   -18.938348   -0.7998938  -0.51568048   -418.82937 
   19400    423.08983    1209.9427    1195.6364    422.98203    330.13377    1.5289667  -0.72909441   -19.058082   -209.95722  -0.67172871   -19.047615    1.4686726  -0.98483338   -8.6462409   -209.90989  -0.54978932   -8.8924536    197.97469  -0.74165072   -18.898833  -0.80036132  -0.51562765   -418.83129 
   19500    423.08983    1256.0282    1241.1107    445.69139    329.22982    1.5263181  -0.73949085   -19.030023   -210.00124  -0.63096437   -19.019765    1.5041542  -0.98351227   -8.6444533   -209.97019  -0.52476939   -8.9167194    198.00462  -0.74758136   -18.880474  -0.80082883  -0.51557481   -418.83322 
   19600    423.08983    1165.8329    1273.5501    440.88698    329.81529     1.535341  -0.76680282   -19.096662   -210.03472  -0.65964343    -19.00803    1.5062578  -0.99208852    -8.712927   -210.00652  -0.55030957   -8.8687979    197.98307  -0.68603415   -18.904487  -0.80129635  -0.51552198   -418.83515 
   19700    423.08983    1170.3675    1261.4184    466.29608    329.85626    1.5610585  -0.78648669   -19.172029   -210.02459  -0.63872018   -19.029127    1.5081276   -1.0338616   -8.8265918   -210.02733  -0.51038934   -8.8836765    197.95149  -0.70363123   -18.969405  -0.80176387  -0.51546914   -418.83707 
   19800    423.08983    1187.6754    1271.8262    428.53516    329.93468    1.5341387  -0.77846206   -19.187644   -210.01263  -0.66560672   -19.123615    1.4516814  -0.94257386   -8.8229795   -210.01476  -0.48946571   -9.0137694    197.94674  -0.73810799   -18.998391  -0.80223139  -0.51541631     -418.839 
   19900    423.08983    1153.8569    1226.7198    432.71878     329.8916    1.5422296    -0.790341   -19.107788   -210.06571  -0.60575087   -19.147686    1.4744839   -1.0357017   -8.8407712   -210.06145  -0.44068532    -9.019427     197.9239  -0.75786649   -19.006112   -0.8026989  -0.51536348   -418.84092 
   20000    423.08983    1193.1493    1214.2383    345.38117    329.66037    1.5725335  -0.80412553   -19.131253   -210.08679  -0.63444792   -19.136747    1.5283732   -1.0059381    -8.812687   -210.09081  -0.45388535   -9.0005901    197.91851   -0.7582506   -19.072031  -0.80316642  -0.51531064   -418.84285 
   20100    423.08983    1110.6766    1176.9886    341.49632     330.1581    1.5479769   -0.7908385   -19.087872   -210.09936  -0.66024386   -19.123714    1.4593239  -0.99068529   -8.6931612   -210.08373  -0.48340849   -8.9537181    197.91161   -0.7607713   -19.065407  -0.80363394  -0.51525781   -418.84477 
   20200    423.08983    1127.4067    1167.8661    295.01076    329.85955    1.5725679  -0.86755512   -19.092364   -210.10197  -0.67472582   -19.151981    1.5106323   -1.0966326   -8.6751443   -210.09263  -0.55981822   -9.0015015    197.91394  -0.77605113   -19.036681  -0.80410145  -0.51520497    -418.8467 
   20300    423.08983    1089.1266    1146.3503    275.03157    330.21224    1.5876925  -0.83089812   -19.045591   -210.10997  -0.62857468   -19.119094    1.5443232   -1.0590478   -8.6547143   -210.12766  -0.51074082   -8.9745363    197.95122  -0.80078052   -19.013477  -0.80456897  -0.51515214   -418.84863 
   20400    423.08983     1065.371    1145.7303    267.53333    330.13686    1.6206163  -0.83871958   -18.943677   -210.09913  -0.68690738   -19.132823    1.5821819   -1.0403772   -8.5594954   -210.08871  -0.56055021   -8.9653243    197.91563  -0.85308568    -18.98833  -0.80503649  -0.51509931   -418.85055 
   20500    423.08983     1090.644    1144.9652    298.87463    329.83859    1.6009058  -0.87656795   -18.930969    -210.0935  -0.66414764   -19.090759    1.5396961    -1.116493   -8.5483203    -210.1098  -0.51921151   -8.9764254    197.92344  -0.85447374   -18.948527    -0.805504  -0.51504647   -418.85248 
   20600    423.08983    1093.3544    1136.5499    289.98017     330.0597    1.5848281  -0.84490872   -18.888619   -210.11086  -0.68079135   -19.098117    1.5313767   -1.0961514   -8.5292574   -210.12465  -0.53779878   -8.9784496    197.90695  -0.81811176   -18.951262  -0.80597152  -0.51499364    -418.8544 
   20700    423.08983     1128.348    1150.4999    281.50074    329.49206    1.5778746  -0.83488455   -18.833093   -210.12854  -0.65750396   -19.096554    1.4991751   -1.1183666   -8.4480504    -210.1681  -0.55466791   -8.9230866    197.91313  -0.77212012   -18.960285  -0.80643904   -0.5149408   -418.85633 
   20800    423.08983    1094.2363    1121.0579    226.16465    330.31657    1.5256307  -0.82718137   -18.840468   -210.10821  -0.66815506   -19.105472     1.443501    -1.102655   -8.4766745   -210.15604  -0.56603702   -8.9547792    197.90737  -0.79528511    -18.96708  -0.80690656  -0.51488797   -418.85826 
   20900    423.08983    1130.0589    1157.5569    304.95667    329.58236    1.5540859  -0.86176869   -18.788264   -210.09682  -0.64696826    -19.12154    1.5055328   -1.1157299   -8.4254752   -210.13973  -0.52293001   -8.9939427    197.93374  -0.77038015   -18.965693  -0.80737407  -0.51483514   -418.86018 
   21000    423.08983    1124.0002    1194.9255    303.76255    329.35005    1.5336901  -0.87877081   -18.708599    -210.0958    -0.665539   -19.138557    1.5248151   -1.1453123   -8.2736448   -210.09184  -0.56754351    -9.002469     197.9412  -0.77265047   -18.973748  -0.80784159   -0.5147823   -418.86211 
   21100    423.08983    1043.7017    1187.6361    235.52505    330.19242    1.5366175  -0.91011187   -18.755097   -210.04988  -0.63155083   -19.150049    1.5137212   -1.1133239   -8.3845181   -210.03182   -0.4576906   -9.0135873    197.94324  -0.74038135   -19.000666  -0.80830911  -0.51472947   -418.86403 
   21200    423.08983    1147.0084    1210.3433    296.55385    329.20528    1.5280933  -0.99217408   -18.810891   -210.02235  -0.63678451   -19.093283    1.4629351   -1.2741696   -8.4856959   -209.96513  -0.48566778   -8.9505483    197.99421    -0.725076   -19.075617  -0.80877662  -0.51467663   -418.86596 
   21300    423.08983    1106.2671    1149.8732    267.79593    330.20345    1.5555003   -1.0003912   -18.795248   -209.96471  -0.58143198    -19.06176    1.4975568    -1.311495   -8.4771511   -209.92244  -0.46702964   -8.8967612    198.06092  -0.73384329   -19.092575  -0.80924414   -0.5146238   -418.86788 
   21400    423.08983     1067.922     1151.547    229.96292    330.09562    1.5355528   -1.0017398     -18.7769   -209.97198   -0.5610005    -19.09022    1.4573223   -1.3097167   -8.4131063   -209.93383    -0.424559    -8.934961    198.07321  -0.70693152   -19.008363  -0.80971166  -0.51457097   -418.86981 
   21500    423.08983    1076.4813    1154.5325    223.24318     329.7403    1.5362202  -0.96538523   -18.696371   -209.94146  -0.59404849   -19.203746    1.4640722   -1.1436976   -8.3270908   -209.92142  -0.41408993   -9.0524663    198.04055  -0.72303922   -18.989642  -0.81017918  -0.51451813   -418.87174 
   21600    423.08983    1060.1763    1110.8108    177.27045    329.87886    1.5220131  -0.88334671   -18.675989   -209.94227  -0.63946016   -19.165258    1.4540244   -1.1136333   -8.3429489   -209.93172  -0.41349183   -9.0304389    198.06066  -0.73762447   -18.950618  -0.81064669   -0.5144653   -418.87366 
   21700    423.08983    1045.7242    1069.9694    131.01881    329.86915    1.5102693   -0.9090517   -18.547559   -209.92902  -0.64986995   -19.172504    1.4694805   -1.1232903   -8.2245747   -209.89359  -0.49684652   -9.0187792    198.05331  -0.76495878   -19.009908  -0.81111421  -0.51441246   -418.87559 
   21800    423.08983    1053.4938     1118.491      147.616    329.32078    1.5424986  -0.91260844   -18.473151   -209.93442  -0.65114343   -19.206174      1.48288   -1.1227457   -8.1168278   -209.88343  -0.50020922   -9.0488075    198.07099   -0.7913939   -19.046478  -0.81158173  -0.51435963   -418.87751 
   21900    423.08983     1022.482      1081.73    122.00523    329.78839    1.5049874  -0.89416637   -18.443826   -209.89838   -0.6634506    -19.21027    1.4736553   -1.1257594   -8.0770508   -209.86464  -0.53708102   -9.0636925    198.08379  -0.77050998    -19.06989  -0.81204924   -0.5143068   -418.87944 
   22000    423.08983    1025.3669    1059.8124    119.71541    330.06965    1.5206937  -0.80120722   -18.423879   -209.90737  -0.66947016   -19.246305    1.4581243   -1.0286637   -8.0093994    -209.8863  -0.56535675   -9.1081305    198.11841  -0.78266206   -19.119217  -0.81251676  -0.51425396   -418.88137 
   22100    423.08983    1011.9625    1023.1827    94.558823    329.99915    1.5091145  -0.80450964   -18.395253   -209.91528  -0.66607807   -19.312225    1.4665803   -1.0301463   -8.0458773   -209.92663  -0.62319573   -9.1788048    198.10802  -0.78090507   -19.162927  -0.81298428  -0.51420113   -418.88329 
   22200    423.08983    969.91835    1087.1145    116.84082    329.59434    1.5001829  -0.83250613   -18.331382   -209.94559  -0.68268316   -19.304488    1.4663294   -1.0516342   -7.9445466   -209.96831  -0.60095062   -9.1190362    198.07565  -0.77475275   -19.243871  -0.81345179   -0.5141483   -418.88522 
   22300    423.08983     965.1539    1015.4113    62.564396    330.09762    1.5251186  -0.83251692   -18.307164   -209.96659  -0.65198614   -19.367542    1.5121067   -1.0637825   -7.9367663   -209.95605  -0.52958784   -9.2171112    198.06421  -0.81910074   -19.294911  -0.81391931  -0.51409546   -418.88714 
   22400    423.08983    961.94319      1020.94    15.615403     330.0695    1.5618689  -0.81952113   -18.280306   -209.92942  -0.67554883   -19.394079    1.5720565    -1.029778   -7.9629231    -209.9185  -0.51848533   -9.2283557    198.09854  -0.87382923   -19.261244  -0.81438683  -0.51404263   -418.88907 
   22500    423.08983    969.00518    1017.3909    30.889982    329.85192    1.5586325  -0.86992524   -18.267047   -209.93457  -0.65361254   -19.398895    1.5445994   -1.0389047   -7.9128667   -209.94771  -0.46780721   -9.2383807    198.11122  -0.89240933   -19.261857  -0.81485435  -0.51398979     -418.891 
   22600    423.08983     971.4599    1023.4117     53.74759     329.3071    1.5019513  -0.88137381   -18.250295   -209.98288  -0.73700793   -19.398864    1.4478497   -1.0859115   -7.9116602   -209.99151   -0.5661586   -9.2221782    198.08396  -0.88520221    -19.30643  -0.81532186  -0.51393696   -418.89292 
   22700    423.08983    956.85594    1042.5929    28.031117    329.59742    1.4799249  -0.90850928   -18.215293   -210.00494  -0.75124655   -19.391914     1.448037   -1.1524269   -7.8965368   -209.99901  -0.58535448   -9.2108527    198.03622  -0.82783913   -19.321807  -0.81578938  -0.51388413   -418.89485 
   22800    423.08983    935.33837    1037.8149     1.391769     329.6862    1.4939987  -0.84214455   -18.233908   -209.98919  -0.77022475   -19.448728    1.4756341   -1.0641382   -7.9105487   -209.99699  -0.65212833   -9.3217815    198.03575  -0.77901441   -19.261117   -0.8162569  -0.51383129   -418.89677 
   22900    423.08983    925.90309    1018.6075    6.7188809    329.98996    1.4644504  -0.88673641   -18.213986   -210.00363  -0.74171995   -19.484741    1.4123025   -1.1413083   -7.8542591   -209.97651   -0.6504059   -9.3626205    198.05203  -0.75165273   -19.271655  -0.81672441  -0.51377846    -418.8987 
   23000    423.08983    900.94003    1015.7158   -21.862846    329.63026    1.4741389  -0.90633328   -18.098777    -210.0038  -0.68477211   -19.476672    1.3836183   -1.1707828   -7.7149498   -209.96934  -0.60136666    -9.356419    198.01275  -0.69958941    -19.27436  -0.81719193  -0.51372562   -418.90062 
   23100    423.08983    932.26806    969.45779    -69.23709    329.98028    1.5323526  -0.87034626   -18.112322   -210.00917  -0.69089214   -19.474424    1.5043047   -1.1522368   -7.7260571    -209.9755  -0.59591432   -9.3198763    197.98788  -0.71746269   -19.313189  -0.81765945  -0.51367279   -418.90255 
   23200    423.08983    898.11212    1002.2113   -43.536783     329.7258    1.5699582  -0.84546577   -18.129029   -210.05287  -0.65620346    -19.47319    1.5629165   -1.1091276    -7.749715   -210.05487  -0.53269787   -9.3048818    197.99645  -0.67155286    -19.34914  -0.81812696  -0.51361996   -418.90448 
   23300    423.08983    874.96536    959.54313   -73.867211    330.06511    1.5293126  -0.88557447   -18.156131   -210.05045  -0.59908081   -19.450432    1.5208131    -1.122885   -7.7807364   -210.05018  -0.44728713   -9.2617548     198.0318  -0.73932112   -19.371273  -0.81859448  -0.51356712    -418.9064 
   23400    423.08983    897.25898    955.20756   -87.101228    329.61122    1.5324313  -0.91293197   -18.232618   -210.00786  -0.56913288   -19.474967    1.4939041   -1.1931214   -7.9074868   -210.02318  -0.42513147   -9.2638692    198.06202  -0.78334957   -19.343641    -0.819062  -0.51351429   -418.90833 
   23500    423.08983     886.0112      966.938   -109.12713    329.90188    1.5277345  -0.85197703   -18.319665   -210.00542  -0.58030292   -19.502017    1.4453057    -1.124776   -8.0077616   -210.00439  -0.43330803   -9.3258698    198.05314  -0.81820538   -19.389877  -0.81952952  -0.51346145   -418.91025 
   23600    423.08983     864.0428    932.37002    -143.2747    330.12032     1.529047  -0.77216234   -18.402413   -210.04845  -0.61560568   -19.529119    1.4232548   -1.0537589   -8.0809485   -210.03681  -0.48075638   -9.3574449    198.02289    -0.732489    -19.44584  -0.81999703  -0.51340862   -418.91218 
   23700    423.08983    854.31851    949.82613   -151.06692    329.69026    1.5433629  -0.78752558   -18.438153   -210.01154  -0.61983192   -19.540526     1.432944    -1.045216   -8.0965429    -210.0156  -0.47666832   -9.3853274    197.99186  -0.70594984   -19.433391  -0.82046455  -0.51335579   -418.91411 
   23800    423.08983    835.73847    899.21453     -240.914    329.90416    1.5168556  -0.72850967   -18.469699   -210.01018   -0.6502925   -19.603221     1.451346  -0.92387307   -8.1423591   -210.00724  -0.48934152   -9.5018228    197.97574  -0.66812103   -19.439978  -0.82093207  -0.51330295   -418.91603 
[...]
  999000    423.08983    953.65835     1147.322    132.89716    331.37317   -2.9826034  -0.28889916   -38.355464   -214.54322  -0.44258289   -38.144889   -3.0653284  -0.49942579   -28.128976   -214.61937  -0.27171589    -28.14501     193.3962  -0.28898958   -37.948449   -5.3801583 0.0019334327   -437.69687 
  999100    423.08983    955.89937    1115.1668    137.24955    331.11228   -2.9922803  -0.26186828   -38.322831   -214.54231  -0.39283403   -38.099881   -3.0558406  -0.46340316   -28.111417   -214.61255  -0.24021432   -28.115285    193.40112  -0.29525886   -37.952738   -5.3806258 0.0019862667    -437.6988 
  999200    423.08983    953.72978     1163.992    141.28004    330.94474   -3.0010485  -0.27613498   -38.335159   -214.54824  -0.39946165   -38.089781   -3.0748808    -0.479272   -28.121274   -214.59688  -0.27924702   -28.136668    193.40896  -0.35733461   -37.998444   -5.3810933 0.0020391006   -437.70072 
  999300    423.08983    964.43098     1089.796    122.01667    331.43166   -3.0048919  -0.28567535   -38.343681   -214.51051  -0.39079696   -38.100179   -3.0609932  -0.50764098   -28.168683   -214.56206  -0.28516279   -28.097701    193.37965  -0.35442664   -37.950494   -5.3815608 0.0020919345   -437.70265 
  999400    423.08983    928.10173    1090.3639    137.96519    331.59203   -3.0333507  -0.27767269   -38.375582   -214.52334  -0.37233424   -38.152494   -3.0626691  -0.51190705   -28.186436   -214.57949  -0.28704318   -28.158207    193.37857  -0.41866253   -37.947155   -5.3820283 0.0021447684   -437.70457 
  999500    423.08983    916.74016    1126.1739    134.95347    331.10335   -3.0473423  -0.29997854   -38.391576   -214.52389  -0.40158333   -38.149486   -3.0567332  -0.50971585   -28.191108   -214.56477  -0.28609626   -28.166423     193.3904  -0.41816971   -37.921679   -5.3824958 0.0021976023    -437.7065 
  999600    423.08983    914.58182    1076.4404    118.63832    331.45337   -3.0705733    -0.355428   -38.405564   -214.51467  -0.42992362   -38.148701   -3.0789692  -0.55167786   -28.239315   -214.55241  -0.32390845   -28.190541    193.39854  -0.39602612   -37.909204   -5.3829634 0.0022504363   -437.70843 
  999700    423.08983     905.1533    1061.1957    80.859731    331.40925   -3.1037954   -0.4156123   -38.403724   -214.53838  -0.48478169   -38.144796   -3.1322718  -0.68094894   -28.229244   -214.57173   -0.4097631   -28.201319    193.39823  -0.37276679   -37.893844   -5.3834309 0.0023032702   -437.71035 
  999800    423.08983    923.60355    1036.5276    70.910733    331.14705   -3.1268773  -0.41451362   -38.393521   -214.52544  -0.46349525   -38.154095   -3.1912906  -0.69925202   -28.212518   -214.55448  -0.36343494     -28.1575    193.37811  -0.37219566   -37.876934   -5.3838984 0.0023561041   -437.71228 
  999900    423.08983    853.21319    1054.2999    35.708287    331.21434   -3.1157777  -0.41233515   -38.347208   -214.52137  -0.47063489   -38.180163   -3.1713152  -0.66079656   -28.126986   -214.54394  -0.34882173   -28.183559    193.40251  -0.35622995    -37.78436   -5.3843659  0.002408938    -437.7142 
 1000000    423.08983    868.72909    1034.6557   -43.254671    331.01744   -3.1237353  -0.39588238   -38.323167   -214.48362  -0.45147347   -38.194982    -3.215774   -0.6446425   -28.100431   -214.49476  -0.32250128   -28.205683    193.40799  -0.41657726   -37.780065   -5.3848334 0.0024617719   -437.71613 
 1000100    423.08983    884.36341     984.0803   -32.102034    331.21946    -3.136718  -0.42295261   -38.386681   -214.49311  -0.42064662   -38.160282   -3.1710952   -0.6951418    -28.16515    -214.5077  -0.32257427   -28.197095    193.42464  -0.36970575   -37.839539   -5.3853009 0.0025146059   -437.71806 
 1000200    423.08983    826.32352    1013.6104   -59.161304    331.15906   -3.1318704  -0.38352058   -38.367856   -214.48488  -0.40554653    -38.14052   -3.1603519  -0.65119989   -28.184651   -214.48705  -0.31260274   -28.191614    193.44716  -0.36492092    -37.82306   -5.3857685 0.0025674398   -437.71998 
 1000300    423.08983    834.25844    974.45335   -48.994253    331.54905   -3.1019133  -0.35367016   -38.362069   -214.50077  -0.44369826   -38.123712   -3.1145559  -0.62528332   -28.188082   -214.48669  -0.36741285   -28.123893    193.44804  -0.34285764   -37.833731    -5.386236 0.0026202737   -437.72191 
 1000400    423.08983    831.36291    980.78892   -91.969413    331.20977   -3.0832732  -0.32421936    -38.29523   -214.49894  -0.39374463   -38.088165   -3.1317875  -0.57450804   -28.132033   -214.45259  -0.27375966   -28.079646    193.43958  -0.32539461   -37.883204   -5.3867035 0.0026731076   -437.72383 
 1000500    423.08983    806.52799    988.35162   -97.309175    331.47312   -3.0789807  -0.30790541   -38.301698   -214.51175  -0.35750941    -38.06001   -3.1445269   -0.5559252   -28.101981   -214.46465  -0.25039361   -28.058357    193.44994  -0.31823342   -37.887835    -5.387171 0.0027259415   -437.72576 
 1000600    423.08983    783.35859    1001.8061   -127.34873    331.22552   -3.0741424  -0.30248324   -38.312193   -214.50984  -0.33050059   -38.122076    -3.130884  -0.58903839   -28.092538    -214.5111  -0.23016136   -28.127383    193.41352  -0.33096874   -37.840325   -5.3876385 0.0027787755   -437.72768 
 1000700    423.08983    768.96403    954.07768   -149.66091    331.48867   -3.0903228  -0.29487068   -38.327368   -214.51611  -0.25986977   -38.164993   -3.1055371  -0.56099799   -28.128626   -214.56705  -0.10236928     -28.1566    193.39535  -0.29904349   -37.828206    -5.388106 0.0028316094   -437.72961 
 1000800    423.08983    777.22656    964.46175   -155.37463    330.62977   -3.1063409  -0.26976708   -38.351367   -214.57587  -0.25459311   -38.141671   -3.1534118  -0.47013832     -28.1173   -214.60753  -0.10631579   -28.159653    193.37789  -0.24413703   -37.852326   -5.3885736 0.0028844433   -437.73154 
 1000900    423.08983    762.74289    916.51808   -157.55066    330.84491    -3.087992  -0.26673147   -38.377245   -214.57047  -0.25364609   -38.139017   -3.1324542  -0.45919887    -28.18177   -214.60508  -0.12808343   -28.216287    193.34262  -0.18379315    -37.89054   -5.3890411 0.0029372772   -437.73346 
 1001000    423.08983    786.54486    906.78917   -174.24803    331.12939   -3.0805511  -0.27410902   -38.395669   -214.56407  -0.26851294   -38.152214   -3.1330629    -0.480491   -28.200628   -214.61721 -0.094506522   -28.185582    193.34668   -0.1170144   -37.918017   -5.3895086 0.0029901111   -437.73539 
 1001100    423.08983    796.55667    873.85014   -215.41096    331.08942   -3.0632726  -0.27567691   -38.400382   -214.57407  -0.22980496   -38.113675   -3.1168119  -0.53032674   -28.225159     -214.635 -0.080202046   -28.142565     193.3441  -0.13454569   -37.874613   -5.3899761 0.0030429451   -437.73731 
 1001200    423.08983    738.47594    895.92292   -233.20561    331.38349   -3.0488432  -0.30419476   -38.392346   -214.57575  -0.15262158   -38.112737   -3.0780035  -0.58023531   -28.199803   -214.63242 0.0049794699   -28.103549    193.34317  -0.14529829   -37.892786   -5.3904436  0.003095779   -437.73924 
 1001300    423.08983    756.79335    917.79579   -246.50037    330.58161   -3.0357538  -0.33524959    -38.39845   -214.58299   -0.1128673   -38.081732   -3.0862804  -0.55861565   -28.209523   -214.63863  0.025258108     -28.0765    193.36556  -0.18401564   -37.890271   -5.3909112 0.0031486129   -437.74117 
 1001400    423.08983    758.12802     875.6837   -257.94434    330.40379   -3.0224315  -0.28382361   -38.366019   -214.59727  -0.13155195   -38.103616   -3.0781977  -0.53118218   -28.206103   -214.62954  -0.01495047   -28.131233    193.33304  -0.12313723   -37.879686   -5.3913787 0.0032014468   -437.74309 
 1001500    423.08983    701.22754    878.20286   -289.55441    331.04369   -3.0032442  -0.26936102   -38.336761   -214.61732  -0.15029784   -38.133395   -3.0236142  -0.52748047   -28.138253   -214.67561 -0.062089115   -28.157005    193.32133  -0.09599179   -37.912402   -5.3918462 0.0032542807   -437.74502 
 1001600    423.08983    716.81853    915.53903   -293.08671    330.88515   -3.0156597  -0.27187971   -38.366835   -214.66002  -0.19299219   -38.127981   -3.0651717  -0.53365788   -28.169448   -214.70999 -0.080321185   -28.131321    193.27831  -0.10403573   -37.913987   -5.3923137 0.0033071147   -437.74694 
 1001700    423.08983    712.16096    844.28696   -299.29092    331.06915   -2.9890709  -0.29399238   -38.316158   -214.68681  -0.19528468   -38.079066   -3.0410298  -0.55217354   -28.110298   -214.75361 -0.092053986   -28.109417     193.2544  -0.11891426   -37.928027   -5.3927812 0.0033599486   -437.74887 
 1001800    423.08983    693.02834    851.69009   -279.27961    331.33457   -2.9753939  -0.26127364   -38.304829   -214.66861  -0.20108348   -38.094525   -2.9923366  -0.45366594   -28.101723   -214.73096 -0.097734606   -28.113021    193.26477  -0.15808395   -37.936059   -5.3932487 0.0034127825   -437.75079 
 1001900    423.08983    731.14654    833.13921    -325.1143    331.30312   -2.9794116  -0.29138158   -38.358446   -214.67355  -0.18801989   -38.135192    -2.998585  -0.49577354   -28.136031   -214.71475 -0.096368779   -28.149883     193.2622  -0.14157878   -37.910552   -5.3937163 0.0034656164   -437.75272 
 1002000    423.08983    674.47934    865.07188   -335.14815    330.96547   -2.9899023  -0.33336866   -38.419058   -214.68271  -0.21995891   -38.116984   -3.0184302  -0.52887254   -28.203123   -214.72752 -0.097326169   -28.149496    193.28222   -0.1374336   -37.873328   -5.3941838 0.0035184503   -437.75465 
 1002100    423.08983    680.53809    857.84688   -338.44926    330.75244   -3.0018261  -0.32134128   -38.403585   -214.67573  -0.21173742   -38.160625    -3.026104  -0.53618084   -28.229545    -214.6746 -0.073787659    -28.14972    193.30861  -0.17862033   -37.868709   -5.3946513 0.0035712843   -437.75657 
 1002200    423.08983    657.67294    834.77011   -369.89345    331.42245   -3.0252705  -0.30015341   -38.400161   -214.62361  -0.22213574   -38.161397    -3.048778  -0.57024826   -28.237427   -214.63499 -0.075813084   -28.182439    193.28403  -0.19108663   -37.845949   -5.3951188 0.0036241182    -437.7585 
 1002300    423.08983    681.84481    830.79344   -339.63256     331.0843   -3.0610048  -0.30903475   -38.357179   -214.64951  -0.26158007   -38.108788   -3.1399011  -0.58604789   -28.167623   -214.66794  -0.12423194   -28.137161    193.30636  -0.21612858   -37.887812   -5.3955863 0.0036769521   -437.76042 
 1002400    423.08983    657.83608    795.87086   -370.16334    331.26967   -3.0716779  -0.29121413   -38.348624   -214.63057  -0.28448112   -38.094638   -3.1481612  -0.55845381   -28.183449   -214.66872  -0.16033442   -28.133069    193.29111  -0.31287617   -37.886152   -5.3960538  0.003729786   -437.76235 
 1002500    423.08983    600.93807    781.71942   -422.89355    331.32487   -3.0831143  -0.23293149    -38.33107   -214.59507  -0.29524489   -38.127974   -3.1703578  -0.47421791   -28.166162   -214.61862  -0.16914829   -28.161841    193.31875  -0.29729148   -37.855379   -5.3965214 0.0037826199   -437.76428 
 1002600    423.08983    656.25233    825.43073   -419.82598    330.64864   -3.0839161  -0.28266408   -38.323896   -214.60091  -0.33174611     -38.1078   -3.1658917   -0.5300049   -28.113583    -214.6091   -0.2332046   -28.155259    193.36586  -0.31482223   -37.818854   -5.3969889 0.0038354538    -437.7662 
 1002700    423.08983    635.08046    785.20157    -433.0837    330.88067   -3.1127287  -0.30124855    -38.29069   -214.56588  -0.35278177   -38.082556    -3.196432  -0.54518213   -28.060463    -214.5889  -0.29106609   -28.058083    193.34692  -0.33298736   -37.880178   -5.3974564 0.0038882878   -437.76813 
 1002800    423.08983     611.2966    776.18269   -465.03181     331.4905   -3.0876176  -0.30021292    -38.21856   -214.56162  -0.30364422   -38.065462   -3.1730465  -0.51008303   -28.019925   -214.60215  -0.22319936   -28.052363    193.38967  -0.34985836   -37.907377   -5.3979239 0.0039411217   -437.77005 
 1002900    423.08983    614.61614    797.30125   -424.95478    330.84319     -3.08727  -0.27406085   -38.194557   -214.58266  -0.37041322    -38.06688   -3.1315521   -0.4767081    -28.00107   -214.62408  -0.28443862   -28.045346    193.41929  -0.40466054   -37.914964   -5.3983914 0.0039939556   -437.77198 
 1003000    423.08983    618.04213    800.86852   -465.66663    330.72419   -3.0805499  -0.33114572   -38.259483   -214.54298  -0.38965758   -38.078029   -3.0805873  -0.55523443   -28.063224   -214.61033   -0.2905307   -28.092535    193.37499  -0.37138961   -37.905127   -5.3988589 0.0040467895    -437.7739 
 1003100    423.08983    644.71616    796.25511   -472.23976    330.82028   -3.0382322  -0.33435003   -38.243308   -214.54559  -0.36783425   -38.088632   -3.0536359  -0.55607632   -28.052011    -214.6046  -0.26229492   -28.110095    193.37849  -0.34976666   -37.921031   -5.3993265 0.0040996234   -437.77583 
 1003200    423.08983    594.27374    779.33502   -496.54845    331.35228   -3.0137044  -0.31166499   -38.233427   -214.51245  -0.41219377   -38.142835    -3.041137  -0.55479818   -28.049849   -214.54879  -0.34260367   -28.168843    193.38837  -0.38634407   -37.901611    -5.399794 0.0041524574   -437.77776 
 1003300    423.08983    692.28052    863.68249   -409.66813    330.40135   -3.0176812  -0.36755292   -38.252396   -214.48356  -0.37379146    -38.19647   -3.0822661  -0.58757026   -28.040437   -214.53035  -0.30266866   -28.237695    193.36332  -0.34101084   -37.935765   -5.4002615 0.0042052913   -437.77968 
 1003400    423.08983    683.05557     831.4972   -411.62953    330.62263   -3.0235706  -0.38448246   -38.227191   -214.52693  -0.37557796   -38.205682   -3.0886787  -0.65797474   -28.045564   -214.57219  -0.25958354   -28.215356    193.39866  -0.30956246    -37.91831    -5.400729 0.0042581252   -437.78161 
 1003500    423.08983    699.70643    821.60967   -366.34675    330.92591   -3.0155778  -0.42741307   -38.238229   -214.51852  -0.33212003   -38.235176   -3.0419967  -0.68125509   -28.047053   -214.59869  -0.19711935   -28.265165    193.40157  -0.31443353    -37.98518   -5.4011965 0.0043109591   -437.78353 
 1003600    423.08983    679.06066    869.61968   -332.92307    330.59405   -3.0282726  -0.46417446    -38.27139    -214.5348  -0.28072515   -38.227004    -3.062968  -0.75391451   -28.099999    -214.5904  -0.12340985    -28.26145    193.42085  -0.29555621   -37.993761    -5.401664  0.004363793   -437.78546 
 1003700    423.08983    664.16968    844.41605    -358.2606    331.08053   -2.9938595  -0.44470248   -38.263507   -214.51777  -0.29904878   -38.222339   -3.0407225  -0.68943536   -28.128611   -214.56586   -0.1648287   -28.256406    193.40055  -0.25513273    -37.97466   -5.4021316  0.004416627   -437.78739 
 1003800    423.08983    679.31958    796.13379    -328.7736    331.08011    -3.009676   -0.4243851   -38.311448   -214.53266  -0.29677992   -38.228004   -3.0554052  -0.66878042   -28.130586   -214.55281  -0.21318866   -28.269129    193.40817  -0.17816026   -37.934898   -5.4025991 0.0044694609   -437.78931 
 1003900    423.08983    694.80974    830.32751    -337.7235    330.99443   -3.0111798  -0.41144366   -38.284028   -214.53798   -0.2748138   -38.219613   -3.0470889  -0.65899911   -28.074798   -214.52054  -0.14811786   -28.258271    193.41864  -0.17234833     -37.9151   -5.4030666 0.0045222948   -437.79124 
 1004000    423.08983    694.45477    821.30154   -314.62784    331.20433   -3.0016287   -0.4301737   -38.267628   -214.51522  -0.27620728   -38.154937   -3.0331656  -0.65686585   -28.043706    -214.5174  -0.15184242   -28.161119     193.3843  -0.13969455   -37.945554   -5.4035341 0.0045751287   -437.79316 
 1004100    423.08983    705.60535    858.73032   -317.73094    330.62373   -2.9940406  -0.39347498   -38.252594   -214.53739   -0.2991563   -38.178002   -3.0253023  -0.60581444   -28.041957   -214.58599  -0.14838587   -28.157061    193.40627  -0.14303992   -37.991206   -5.4040016 0.0046279626   -437.79509 
 1004200    423.08983    726.02261     828.9776   -324.76499    331.37094   -2.9769895  -0.39660234   -38.294256   -214.53956  -0.29980695   -38.160776   -3.0061347  -0.65141445   -28.109342   -214.62429  -0.13893073   -28.169294    193.40671  -0.12833905    -37.97344   -5.4044691 0.0046807966   -437.79702 
 1004300    423.08983    726.19703    863.26401   -280.16814    330.61807   -2.9745151  -0.33909509   -38.313529   -214.49885  -0.24613501   -38.179237   -2.9749662  -0.59354617    -28.13243   -214.59616    -0.103618   -28.239895    193.39632    -0.131242   -37.941254   -5.4049367 0.0047336305   -437.79894 
 1004400    423.08983    720.04028    899.87608   -291.43535    331.04293   -2.9990835   -0.3874408   -38.321436   -214.52817  -0.21709272   -38.210069   -2.9786083  -0.64806381   -28.144943   -214.58497  -0.13942965   -28.230549    193.40207   -0.1755262   -37.933474   -5.4054042 0.0047864644   -437.80087 
 1004500    423.08983    706.68283    902.89791   -277.14296    330.77743   -3.0010104  -0.41425232   -38.311717    -214.5464  -0.24923891   -38.185053   -2.9854636  -0.65648215   -28.131609   -214.58335  -0.19251789   -28.221077     193.3652  -0.23746464   -37.943635   -5.4058717 0.0048392983   -437.80279 
 1004600    423.08983    675.47495    855.34098   -326.12769    331.14803   -2.9610268  -0.43299818   -38.254264   -214.55669  -0.24404824   -38.191325   -2.9798646  -0.70811118   -28.064323   -214.58518  -0.17706922   -28.223054    193.36442  -0.18930174   -37.930998   -5.4063392 0.0048921322   -437.80472 
 1004700    423.08983    698.57848    871.22767   -336.68874    330.79879   -2.9529521  -0.38967315   -38.253925   -214.52133  -0.25493436   -38.216618   -2.9832598  -0.67008258    -28.01695   -214.57272  -0.16821883   -28.252528     193.3869  -0.22809753   -37.949665   -5.4068067 0.0049449662   -437.80664 
 1004800    423.08983    691.35096    927.89855   -329.50603    331.03781   -2.9664352  -0.31555198   -38.314617    -214.5075  -0.30776788   -38.219717   -2.9722663  -0.59508023   -28.097263   -214.51623  -0.16596686   -28.250955    193.39419  -0.25832902   -37.950388   -5.4072742 0.0049978001   -437.80857 
 1004900    423.08983    679.40921    860.75917   -327.23601    331.37354   -2.9541796  -0.36299566   -38.298998   -214.50761  -0.34066546   -38.213899   -2.9437152  -0.60964391   -28.078686   -214.53143  -0.17714824   -28.234578     193.3863  -0.25023543   -37.970778   -5.4077418  0.005050634    -437.8105 
 1005000    423.08983    739.03243    911.06279   -290.27755    330.60469   -2.9501449  -0.35765067   -38.331251   -214.53778  -0.30650629   -38.200544   -2.9631505  -0.61106815    -28.15194    -214.5957  -0.18323521   -28.202898    193.37911  -0.27385314   -37.960459   -5.4082093 0.0051034679   -437.81242 
Loop time of 8242.35 on 512 procs for 1000000 steps with 487040 atoms

Performance: 20.965 ns/day, 1.145 hours/ns, 121.325 timesteps/s
99.9% CPU use with 512 MPI tasks x no OpenMP threads

MPI task timing breakdown:
Section |  min time  |  avg time  |  max time  |%varavg| %total
---------------------------------------------------------------
Pair    | 2574.1     | 5356.7     | 5789.4     | 969.4 | 64.99
Neigh   | 5.0698     | 83.912     | 93.954     | 221.6 |  1.02
Comm    | 853.13     | 1115.4     | 2512.1     | 954.5 | 13.53
Output  | 5.1856     | 5.3205     | 6.0029     |   1.7 |  0.06
Modify  | 57.884     | 61.672     | 72.713     |  30.1 |  0.75
Other   |            | 1619       |            |       | 19.65

Nlocal:    951.25 ave 1064 max 0 min
Histogram: 16 0 0 16 0 0 13 3 25 439
Nghost:    3388.78 ave 3846 max 0 min
Histogram: 16 0 0 14 2 16 0 0 0 464
Neighs:    66752.5 ave 76496 max 0 min
Histogram: 16 0 0 16 0 15 1 0 72 392

Total # of neighbors = 34177265
Ave neighs/atom = 70.1734
Neighbor list builds = 24167
Dangerous builds = 0



Total wall time: 2:18:10
