LAMMPS (16 Feb 2016)
# ------------------------ INITIALIZATION ----------------------------
echo both
#log		log.c
units           metal
dimension       3
boundary        p p p
atom_style      atomic
shell         mkdir  cfg
WARNING: Shell command 'mkdir' failed with error 'File exists' (../input.cpp:1126)
shell         mkdir  dump
WARNING: Shell command 'mkdir' failed with error 'File exists' (../input.cpp:1126)


# ----------------------- ATOM DEFINITION & Force Field -------------
read_data     NPT_relaxed.data       ##Read file dumped from simulation 1
  orthogonal box = (-210.782 -8.10698 -880.61) to (210.782 8.10698 23.3184)
  16 by 1 by 32 MPI processor grid
  reading atoms ...
  346944 atoms
  reading velocities ...
  346944 velocities

pair_style      eam/alloy
pair_coeff  	  * * Al_wkg_MSMSE_2009.set Al

#---------------------- DEFINE Laser GERION and GROUP ----------------
region       R1  block -75  75  INF  INF  INF  5  units box
group        G1 region R1
123691 atoms in group G1
group        G2 subtract all G1
223253 atoms in group G2


#define     temperature/pressure calculation  group
variable    x1atom atom "x>=0  &&  x<4 &&  z>-40 && z<1"     ##NEW!!!!!!!!!!!!
variable    x2atom atom "x>=-210.79  &&  x<-206.79 &&  z>-40 && z<1"
variable    x3atom atom "x>=0  &&  x<4 &&  z>-20 && z<1"
variable    x4atom atom "x>=-210.79  &&  x<-206.79 &&  z>-20 && z<1"
variable    x5atom atom "x>=196  &&  x<200 &&  z>-40 && z<1"

group       x1atom variable x1atom
145 atoms in group x1atom
group       x2atom variable x2atom
151 atoms in group x2atom
group       x3atom variable x3atom
71 atoms in group x3atom
group       x4atom variable x4atom
74 atoms in group x4atom
group       x5atom variable x5atom
160 atoms in group x5atom


compute      COM1x x1atom com
compute      COM2x x2atom com
compute      COM3x x3atom com
compute      COM4x x4atom com
compute      COM5x x5atom com

compute      COMall all com

#Temperature profile
#variable      Tprofile atom 300*(1+(step/5000)*2.5*exp(z/40))
variable      Tprofile atom 300*(1+(step/5000)*2.5*exp(z/75))

# ------------------------- SETTINGS ---------------------------------
thermo          100
thermo_style    custom step lx pxx pyy pzz temp c_COM1x[1] c_COM1x[2] c_COM1x[3] c_COM2x[1] c_COM2x[2] c_COM2x[3] c_COM3x[1] c_COM3x[2] c_COM3x[3] c_COM4x[1] c_COM4x[2] c_COM4x[3]  c_COM5x[1] c_COM5x[2] c_COM5x[3] c_COMall[1] c_COMall[2] c_COMall[3]

timestep       0.002


compute dispall all displace/atom
# ---------------- Run Laser Material Interaction --------------------
#dump          1 all custom 1000 dump/z1dump.atom id type x y z c_dispall[1]  c_dispall[2]  c_dispall[3] c_dispall[4]
#dump          2 all cfg 100 cfg/*.cfg mass type xs ys zs
#dump_modify   2 element Al

#relax for 2 PS
#fix           1 all nvt temp 300.0 300.0 0.1
#run  1000
#unfix         1

fix           1  all nve
fix           3temp  G1  langevin  v_Tprofile  0  0.1  378411   #TEST ALL
run           5000
Neighbor list info ...
  1 neighbor list requests
  update every 1 steps, delay 10 steps, check yes
  max neighbors/atom: 2000, page size: 100000
  master list distance cutoff = 8.365
  ghost atom cutoff = 8.365
  binsize = 4.1825 -> bins = 101 4 217
Memory usage per processor = 0.187103 Mbytes
Step Lx Pxx Pyy Pzz Temp COM1x[1] COM1x[2] COM1x[3] COM2x[1] COM2x[2] COM2x[3] COM3x[1] COM3x[2] COM3x[3] COM4x[1] COM4x[2] COM4x[3] COM5x[1] COM5x[2] COM5x[3] COMall[1 COMall[2 COMall[3 
       0    421.56319    130.52035    97.005764   -387.44133    300.01992    1.6720663   -1.1061035    -19.96995    -208.3125   -1.3109847   -19.736511    1.8422101   -1.0884529   -9.6445424   -208.21805   -1.5284957   -9.2461396    197.52287   -1.0190581   -19.631614   -1.0133731   -1.0133731    -418.5123 
     100    421.56319    148.39337    149.03099   -333.06977    300.43048    1.6739374   -1.1069065   -19.948593   -208.28344   -1.3086537   -19.730546    1.8393244   -1.0495509   -9.6286679   -208.17713   -1.4759475    -9.224089    197.52869   -0.9865168   -19.636768   -1.0138981   -1.0125889   -418.51298 
     200    421.56319    247.64481     192.4266    -254.0764     300.8888    1.6678189   -1.0884378   -19.942199   -208.24696   -1.2861487   -19.782577     1.839984   -1.0127005   -9.6348757   -208.13887   -1.4368553   -9.3006864    197.54356   -1.0532846    -19.62303   -1.0147609   -1.0113801   -418.51323 
     300    421.56319    281.17744    208.24877   -235.61002    301.86293    1.6819921   -1.0891858   -19.954253   -208.20639   -1.2653574   -19.778498    1.8240385   -1.0577646   -9.6525045   -208.08608   -1.3443542   -9.3138941    197.57406   -1.0382887   -19.653904   -1.0164562   -1.0104998   -418.51332 
     400    421.56319    256.17521    239.24098   -231.14769    302.61894    1.6763264   -1.1287082   -19.962569   -208.18048   -1.2815342   -19.757434    1.8190251   -1.0772785   -9.6348121    -208.0659   -1.3953003   -9.2958428    197.62227   -1.0714061   -19.708173   -1.0183347   -1.0099563   -418.51289 
     500    421.56319     353.1734    341.92554   -126.91835    302.84012     1.673227    -1.121528   -19.941876   -208.15422   -1.3161355    -19.77521    1.8092863   -1.0537167   -9.6242953   -208.03662   -1.4712141    -9.239482     197.6577   -1.0982288   -19.784632   -1.0197984   -1.0091272   -418.51181 
     600    421.56319    353.47846    382.16176     -105.337    303.43514    1.6312029   -1.1323645   -19.919409   -208.13483   -1.3485817    -19.79023    1.7767505   -1.0526852   -9.6025949   -208.04075   -1.5125345   -9.2741214      197.685   -1.0796805   -19.757412   -1.0208619   -1.0083084    -418.5118 
     700    421.56319    395.95462    325.24448    -109.5804    303.98295    1.6399821   -1.1141498   -19.957617   -208.12141   -1.3182519    -19.77242    1.7899034   -1.0066091   -9.6163407    -207.9713   -1.5657162   -9.2378099     197.7085   -1.0532729     -19.7516   -1.0220811    -1.007359   -418.51226 
     800    421.56319    413.15855     416.4912   -52.439245    304.58336    1.6060947    -1.148159   -20.005385    -208.1208    -1.343217   -19.857415    1.7987978    -1.031093   -9.6337761   -207.98469   -1.5639756   -9.3647213    197.69436   -1.0994728   -19.763202   -1.0226359   -1.0062167   -418.51271 
     900    421.56319    433.39833    428.22194   -55.773755     305.3319    1.6499393   -1.1199581   -19.980951   -208.07969   -1.3106612   -19.828824    1.7952149  -0.98959305   -9.6687897   -207.94361   -1.4872367   -9.3695109    197.69937   -1.1237626   -19.718275   -1.0223389   -1.0055326   -418.51301 
    1000    421.56319    503.10913    446.85502   -4.7031285    305.69646    1.6558246   -1.1535234   -19.911896   -208.09018    -1.322127   -19.861143    1.7908453   -1.0889361    -9.548866   -207.98646   -1.4727693   -9.3721339    197.70625   -1.1370273    -19.77594   -1.0220375   -1.0039641   -418.51316 
    1100    421.56319    518.29842    528.89232    58.857488    305.92482    1.6629057   -1.1044957   -19.861065   -208.11199    -1.334941   -19.922078    1.8141458   -1.0564365   -9.4796506   -207.97241   -1.4721266   -9.4577039    197.69448   -1.1106754   -19.824489   -1.0211053   -1.0031283   -418.51358 
    1200    421.56319    506.16004    521.58891    45.964499    307.02581    1.6497444   -1.0895553   -19.897362   -208.12139   -1.3024641   -19.891226    1.8368444   -1.0787871   -9.5258006   -207.99356   -1.4429903   -9.3932555    197.68481   -1.0979486   -19.779003   -1.0207171   -1.0023778   -418.51376 
    1300    421.56319    524.13784    546.61384    22.110887    307.82709    1.6334204   -1.1647695   -19.859876   -208.12976   -1.2685108   -19.894097    1.8119204   -1.1116694   -9.4671855   -208.01001   -1.4355619   -9.4255825    197.68341   -1.0500233   -19.742039   -1.0197211   -1.0010243   -418.51271 
    1400    421.56319    571.94303    543.86352    44.423293    307.86478    1.6953153   -1.1730718   -19.880823   -208.14961    -1.252069   -19.882888    1.8519089    -1.108243     -9.48322   -207.99258   -1.4619927   -9.3952128    197.67698   -1.0339754   -19.754378   -1.0186636   -1.0001564   -418.51282 
    1500    421.56319    608.46992    564.07885    33.878476    308.00074    1.6729917   -1.0978182   -19.835571   -208.19219   -1.2411593    -19.90542    1.8356991   -1.0519089   -9.4189319   -208.09709   -1.4391193   -9.4108555    197.66505   -1.0100343     -19.7126   -1.0170651  -0.99935715   -418.51249 
    1600    421.56319    597.11293    615.37305    54.493713    309.15983    1.6340979   -1.1133211   -19.814259   -208.19598   -1.2324561   -19.857598    1.8097042   -1.0564128   -9.4212319   -208.11208    -1.393808   -9.3480561     197.6801   -1.0424561   -19.661781    -1.015882  -0.99781935   -418.51198 
    1700    421.56319    604.97639    588.52487    28.567958    309.87662    1.6620304   -1.1119651   -19.778844   -208.19781    -1.231037   -19.793331    1.8003498   -1.0466996   -9.4281236   -208.12941    -1.342194   -9.2355512    197.68113   -1.0600457   -19.726934   -1.0161362  -0.99695198   -418.51176 
    1800    421.56319    642.89107     645.9903    108.64776    310.15636     1.671356   -1.1843371    -19.77078   -208.18028   -1.2551329    -19.70022    1.8047988   -1.1037637   -9.4538952   -208.08802   -1.3466389   -9.2108959    197.67185     -1.07162   -19.723908   -1.0156039  -0.99586084   -418.51231 
    1900    421.56319    629.62865    603.03418     55.25282    310.59036    1.6711331   -1.2417242   -19.824773   -208.19318   -1.2678348   -19.682137    1.8209128    -1.161279   -9.4728548    -208.1216   -1.4027906   -9.1728692     197.6863   -1.0831696    -19.71815   -1.0150042  -0.99626779   -418.51275 
    2000    421.56319    632.74477    621.43373    29.204138    311.48119    1.6587716   -1.2406931   -19.901057    -208.1591   -1.2380428   -19.677641    1.8118644   -1.1352722    -9.516553   -208.04486   -1.4336374   -9.1416145    197.61235   -1.0520804   -19.661465    -1.015251  -0.99638024   -418.51334 
    2100    421.56319    669.68579    690.86227    75.322695    311.91503    1.6752239   -1.1937464   -19.867154    -208.1837   -1.2355222   -19.684076    1.8403561   -1.1050898   -9.4652592    -208.0613   -1.4230288   -9.1798988    197.65105    -1.048497   -19.686793   -1.0156631  -0.99687149   -418.51393 
    2200    421.56319    669.89818    681.52647    92.480648    313.09047     1.645309    -1.169953   -19.850914   -208.17639   -1.1887545   -19.667765    1.8509305   -1.1195317   -9.4215798   -208.08176   -1.3806355   -9.1809589    197.64627  -0.99378642    -19.63951   -1.0159457  -0.99723417    -418.5137 
    2300    421.56319    725.14823    678.61428    85.438513    312.88553    1.6652363   -1.1592018   -19.777495   -208.20844   -1.1778679   -19.666341    1.8317695   -1.0874804   -9.3132494   -208.14913   -1.3686072   -9.1770253    197.65314  -0.93969267   -19.659252   -1.0155811  -0.99722153   -418.51397 
    2400    421.56319    781.09087    731.60542    103.04603    313.27577    1.6610631   -1.1239585   -19.820519   -208.21952   -1.0931002   -19.685658     1.858188   -1.1118324   -9.3493829   -208.14777   -1.2614867   -9.1833021    197.61038  -0.91303698   -19.613793   -1.0143319  -0.99680967   -418.51501 
    2500    421.56319    781.51493    777.74158    154.78925    314.85863    1.6811399   -1.1526481   -19.833897   -208.21684   -1.0928561   -19.664258    1.8914246   -1.1391598     -9.36689   -208.08058   -1.2439393   -9.1440392    197.63473  -0.86631968   -19.584748   -1.0129204  -0.99612987   -418.51543 
    2600    421.56319     809.5632    743.27185    125.26682    314.82632    1.6349468   -1.1441544   -19.833961   -208.22505   -1.0665144   -19.603854    1.8171514   -1.0984247   -9.3729095   -208.09133   -1.1960547   -9.0761039     197.6462  -0.83863938   -19.560454   -1.0112071  -0.99594927   -418.51663 
    2700    421.56319    817.82413    791.59454    107.18799    315.70335    1.5801147   -1.2158929   -19.787031   -208.18822   -1.0164479   -19.600313    1.7839227   -1.1340997   -9.3128373   -208.07107   -1.1702312   -9.0792233    197.65656  -0.81202696   -19.507163   -1.0087219  -0.99634713   -418.51671 
    2800    421.56319    856.68439    793.13047    179.70833    316.76693    1.6295733   -1.1948906   -19.713692   -208.17089   -1.0382301   -19.548264    1.8232808   -1.1780239   -9.1990733   -208.01127   -1.1906082   -9.0621976    197.67425  -0.81376248   -19.427905   -1.0067044  -0.99708749   -418.51656 
    2900    421.56319    862.35725    821.59647    142.53196    317.33752    1.6158165   -1.1672676   -19.725208   -208.18618   -1.0457089   -19.537958     1.783987   -1.0657834   -9.1994612   -208.07296   -1.1443125   -9.0103627    197.62567  -0.76582489   -19.441109   -1.0055032  -0.99670565   -418.51734 
    3000    421.56319    897.88123    872.27752    187.94314    317.43642    1.6409098   -1.1591036   -19.645998   -208.23995   -1.0655978   -19.462289    1.8420581   -1.0471043   -9.1286779   -208.13438   -1.1753409    -8.925287    197.58155  -0.76857961     -19.4591   -1.0048566  -0.99597483   -418.51719 
    3100    421.56319    865.68249    871.30143    159.10117    317.80068    1.6315268   -1.1589094   -19.621183   -208.30954   -1.0472321     -19.4348    1.8273062   -1.0464379   -9.1103134   -208.24575   -1.1968428    -8.911703     197.5315  -0.82759559   -19.419413   -1.0039173  -0.99730897   -418.51678 
    3200    421.56319    913.67257    915.41034    175.52766    318.63482    1.6246545   -1.1902062   -19.637684   -208.35599   -1.0240312   -19.483643    1.8048128  -0.99393491   -9.1495557   -208.31312   -1.1934507   -9.0104279    197.55303  -0.83428124   -19.409544   -1.0027086  -0.99780919   -418.51727 
    3300    421.56319    945.34313    904.28709    231.79714    319.44291     1.652906   -1.1528763   -19.648669   -208.35959   -1.0439606   -19.505468    1.8583847   -1.0270117   -9.1448823   -208.29982    -1.231625    -8.994139    197.54075  -0.80358395    -19.40252   -1.0018538  -0.99746866    -418.5182 
    3400    421.56319    1006.2318     971.3302    244.90048    320.72567    1.6103271   -1.1860132   -19.611485   -208.34702   -1.0649473   -19.446699    1.7780062   -1.1303757   -9.1078443   -208.28171   -1.2448118   -8.9204768    197.52173  -0.79948259   -19.388908   -1.0021193  -0.99747363   -418.51975 
    3500    421.56319    1023.2071    987.08834    229.77764     320.9638    1.6522515   -1.1671439   -19.594705   -208.31318   -1.0905711   -19.465021    1.8330771    -1.050486   -9.0817343   -208.22131   -1.2385634   -8.9638735    197.50575  -0.81236439   -19.393025   -1.0010184  -0.99717253     -418.521 
    3600    421.56319    990.86728     975.4806    230.53375    321.57825    1.6436274   -1.1320022   -19.604525   -208.31555   -1.1196369   -19.517984    1.8558639   -1.0737531   -9.0345546   -208.20685   -1.2685751   -8.9992628    197.55704   -0.8143471    -19.42763   -1.0007983  -0.99744128   -418.52081 
    3700    421.56319    1086.4261    1009.2085    305.48961    322.15308    1.6670053   -1.1612843    -19.59901   -208.28939   -1.1448906   -19.507626    1.8101241   -1.0129818   -9.0544242   -208.20363   -1.3380118   -8.9784605    197.59993  -0.86526178   -19.427194    -1.001961  -0.99787973   -418.52191 
    3800    421.56319    1108.5992    1090.3585    419.68795    322.41657    1.6758573   -1.1023618    -19.63314   -208.28849   -1.1090316   -19.537472    1.7760059  -0.91048591    -9.095569   -208.16289   -1.3055226   -9.0086558    197.63856  -0.97573356   -19.447827   -1.0021797  -0.99771931   -418.52217 
    3900    421.56319    1211.6357     1134.167     436.5381    322.99567    1.6569001   -1.0652858   -19.640618    -208.2863    -1.157419   -19.614017    1.7492093  -0.92375667   -9.1569863   -208.16788   -1.3655502   -9.0884871    197.63609  -0.94024039   -19.488319   -1.0027089  -0.99859452   -418.52298 
    4000    421.56319    1196.3413    1125.3161    447.09588     323.9994    1.6253842   -1.0608164   -19.697004   -208.27747   -1.1683544   -19.614813    1.7754703  -0.95098916   -9.1649326   -208.16726   -1.3616864   -9.0617311    197.65125  -0.90319501   -19.488371   -1.0032621   -0.9986128   -418.52346 
    4100    421.56319    1230.4074     1181.183    490.42693    325.46743    1.5995205   -1.0741535   -19.777949    -208.2234   -1.1702653   -19.577925    1.7366238  -0.92060169   -9.2617271   -208.11079    -1.355819   -8.9912935     197.6775  -0.91205892   -19.518412   -1.0033938  -0.99837741   -418.52445 
    4200    421.56319    1305.2544    1238.5062    542.91926     325.3385    1.5454025   -1.0120325   -19.727252   -208.20666    -1.158358    -19.58771    1.6178334  -0.81362776   -9.2701728   -208.10676   -1.3093788   -9.0546818    197.66671  -0.92939146   -19.538732   -1.0036102  -0.99866694   -418.52602 
    4300    421.56319    1314.9959    1261.5866    567.74934    326.23282     1.558271   -1.0334064   -19.690155   -208.20019    -1.239037   -19.578421    1.7242032  -0.82665968   -9.1710174   -208.06585   -1.3478843    -9.099882    197.67191  -0.89851741   -19.561023   -1.0032329  -0.99934285   -418.52658 
    4400    421.56319    1391.5722    1344.8247    648.12459    327.24404    1.6349947   -1.0533068   -19.694772   -208.16919   -1.2307498   -19.618332    1.8025562  -0.88149483   -9.1542655   -208.04107   -1.4218367   -9.1288683    197.69749  -0.97102371   -19.640512   -1.0034509   -1.0005259   -418.52713 
    4500    421.56319    1410.1857    1354.2883    659.67118    327.63697    1.6272023   -1.0994185   -19.689918   -208.15502   -1.2385763   -19.657707    1.8119929  -0.94952417   -9.1942468   -208.01948   -1.4361028   -9.1653249    197.68619  -0.97750822   -19.698654   -1.0042868   -1.0008748   -418.52781 
    4600    421.56319    1436.8352    1376.9957    635.12967    329.35538    1.6578678   -1.1476353   -19.677634   -208.18456    -1.268297   -19.756965    1.8339603   -1.0232828   -9.1657342   -208.07211   -1.4150212   -9.2254175     197.7073   -1.0388497   -19.742853    -1.005309   -1.0009074   -418.52879 
    4700    421.56319    1469.7126    1385.5372    666.88057    328.81018    1.6310132   -1.0549785   -19.603315   -208.22391   -1.2503129    -19.81119    1.7777752  -0.93166651   -9.1542287    -208.1584   -1.3409596   -9.3056059    197.70663   -1.0431445   -19.696311   -1.0071378   -1.0012165   -418.53031 
    4800    421.56319    1470.6083    1438.8032    732.27107      330.069    1.6345767   -1.0144075   -19.553214   -208.21997   -1.3243596   -19.799185    1.8035064  -0.89884318   -9.0390668   -208.14801   -1.4054992    -9.278538    197.70397   -1.0672774   -19.688565   -1.0093848   -1.0018799   -418.53176 
    4900    421.56319    1539.9412    1420.8793    772.45635     329.9893    1.6150035   -1.0676202   -19.593624   -208.22085   -1.3619499   -19.785169    1.8076744  -0.98810933   -9.0419421   -208.12405   -1.4693787   -9.3070985     197.7598   -1.0678726   -19.719465   -1.0107645   -1.0023181    -418.5324 
    5000    421.56319    1568.7861    1489.0279     824.6784    331.53705     1.587275   -1.1066586   -19.532649   -208.16432    -1.328281   -19.715899    1.7514388   -1.0504957   -9.0630774   -208.09779   -1.4672677   -9.1786641    197.71004   -1.1161762   -19.710075     -1.01335   -1.0025991    -418.5339 
Loop time of 30.5374 on 512 procs for 5000 steps with 346944 atoms

Performance: 28.293 ns/day, 0.848 hours/ns, 163.733 timesteps/s
99.9% CPU use with 512 MPI tasks x no OpenMP threads

MPI task timing breakdown:
Section |  min time  |  avg time  |  max time  |%varavg| %total
---------------------------------------------------------------
Pair    | 0.0021389  | 19.12      | 20.862     |  85.0 | 62.61
Neigh   | 0.00028014 | 0.3082     | 0.44052    |  13.4 |  1.01
Comm    | 0.064565   | 4.1901     | 11.196     |  75.4 | 13.72
Output  | 0.32681    | 0.41606    | 1.2691     |  25.4 |  1.36
Modify  | 0.030505   | 0.40129    | 0.91863    |  50.4 |  1.31
Other   |            | 6.101      |            |       | 19.98

Nlocal:    677.625 ave 768 max 0 min
Histogram: 16 0 0 16 0 3 13 0 15 449
Nghost:    3173.72 ave 3607 max 0 min
Histogram: 16 0 0 16 0 16 0 0 17 447
Neighs:    47770 ave 55113 max 0 min
Histogram: 16 0 16 0 0 13 3 0 46 418

Total # of neighbors = 24458225
Ave neighs/atom = 70.4962
Neighbor list builds = 111
Dangerous builds = 0


variable  com1_x equal "c_COM1x[1]"
variable  com1_y equal "c_COM1x[2]"
variable  com1_z equal "c_COM1x[3]"
variable  com2_x equal "c_COM2x[1]"
variable  com2_y equal "c_COM2x[2]"
variable  com2_z equal "c_COM2x[3]"
variable  com3_x equal "c_COM3x[1]"
variable  com3_y equal "c_COM3x[2]"
variable  com3_z equal "c_COM3x[3]"
variable  com4_x equal "c_COM4x[1]"
variable  com4_y equal "c_COM4x[2]"
variable  com4_z equal "c_COM4x[3]"
variable  com5_x equal "c_COM5x[1]"
variable  com5_y equal "c_COM5x[2]"
variable  com5_z equal "c_COM5x[3]"
variable  comall_x equal "c_COMall[1]"
variable  comall_y equal "c_COMall[2]"
variable  comall_z equal "c_COMall[3]"


fix          2 all print 100 "${com1_x}   ${com1_y}   ${com1_z}  ${com2_x}   ${com2_y}   ${com2_z} ${com3_x}   ${com3_y}   ${com3_z} ${com4_x}   ${com4_y}   ${com4_z} ${com5_x}   ${com5_y}   ${com5_z} ${comall_x}   ${comall_y}   ${comall_z}" file COM.data screen no
#-------------------------- Wave Propagation -------------------------
unfix        3temp
run          1000000
Memory usage per processor = 0.187103 Mbytes
Step Lx Pxx Pyy Pzz Temp COM1x[1] COM1x[2] COM1x[3] COM2x[1] COM2x[2] COM2x[3] COM3x[1] COM3x[2] COM3x[3] COM4x[1] COM4x[2] COM4x[3] COM5x[1] COM5x[2] COM5x[3] COMall[1 COMall[2 COMall[3 
    5000    421.56319    1568.7861    1489.0279     824.6784    331.53705     1.587275   -1.1066586   -19.532649   -208.16432    -1.328281   -19.715899    1.7514388   -1.0504957   -9.0630774   -208.09779   -1.4672677   -9.1786641    197.71004   -1.1161762   -19.710075     -1.01335   -1.0025991    -418.5339 
    5100    421.56319    1566.9136    1498.1109    800.54953    330.93079    1.6838534  -0.96927208   -19.443964    -208.1491   -1.3115902   -19.782243    1.8607922  -0.81747762   -8.9155263   -208.07858   -1.5156842   -9.1811667    197.72611   -1.1446449   -19.668258    -1.015901   -1.0024567   -418.53651 
    5200    421.56319    1599.1162    1458.2964    770.61193    331.03561    1.5614015  -0.99394176   -19.368116   -208.16052   -1.3498543   -19.804868    1.7964334  -0.96830954   -8.7078857   -208.05382   -1.5795963   -9.2690119      197.767   -1.1334279   -19.632886   -1.0184519   -1.0023142   -418.53912 
    5300    421.56319    1525.3162    1435.0146    762.14201      331.025    1.5445622  -0.98010741   -19.261256   -208.18455   -1.2994489   -19.767899    1.7704277  -0.96674359   -8.6016216   -208.05683   -1.5171672   -9.2180216    197.77146   -1.0648259   -19.670217   -1.0210028   -1.0021718   -418.54173 
    5400    421.56319    1525.8165    1455.9487    746.92774    329.83776    1.6210799  -0.91657061   -19.139529   -208.21402   -1.2767502   -19.721801    1.7608256  -0.84859275   -8.3995765   -208.06982   -1.4892454   -9.1690673    197.73241   -1.0682426   -19.691594   -1.0235538   -1.0020294   -418.54434 
    5500    421.56319    1547.3955    1410.5555     694.9631    329.94205    1.5997254  -0.95139586   -19.158955   -208.23346    -1.314177   -19.716184    1.7673495  -0.81391026   -8.4005394   -208.08919   -1.5636354   -9.1977299    197.68046   -1.0638301     -19.7048   -1.0261047    -1.001887   -418.54695 
    5600    421.56319    1508.7484    1384.1571    619.10294    330.29918    1.6373545  -0.94488524   -19.078452   -208.24056   -1.2955614   -19.725241    1.7957497  -0.71049054   -8.3878138   -208.08887   -1.5177925   -9.2037411    197.67592   -1.0444016   -19.707427   -1.0286556   -1.0017446   -418.54956 
    5700    421.56319     1478.017    1353.2654    620.43762    330.20946    1.7295039  -0.96445747   -18.940249   -208.25826   -1.3177908    -19.79777    1.8394527  -0.84437905    -8.188013   -208.14434   -1.4846877   -9.3080439    197.65141   -1.1001752   -19.706725   -1.0312066   -1.0016021   -418.55217 
    5800    421.56319    1447.2914     1369.238    572.58227    329.97972    1.7086315   -1.0131563   -18.849939    -208.2445   -1.2959597   -19.802725    1.8266298  -0.95737306   -8.0449949    -208.1644   -1.3972505   -9.2777264    197.72668   -1.1065262   -19.723116   -1.0337575   -1.0014597   -418.55478 
    5900    421.56319    1422.8666    1322.7252    507.92084    330.72331     1.701247   -1.0931334   -18.760858   -208.19187   -1.2779476   -19.789819    1.9198021   -1.1193233    -8.106499   -208.08573   -1.4112733   -9.2379898    197.73829   -1.1805432   -19.674543   -1.0363085   -1.0013173   -418.55739 
    6000    421.56319    1454.8677    1309.8365    497.86529     329.9887    1.7644358    -1.180278   -18.700855   -208.19673   -1.3253853   -19.793616    2.0051439   -1.2431337   -8.1328042    -208.0511   -1.4638963   -9.2214592    197.75701   -1.1829659   -19.714642   -1.0388594   -1.0011749      -418.56 
    6100    421.56319    1390.6777    1252.8231    487.98736    330.45713    1.7321619   -1.1460817   -18.599905    -208.2118   -1.3407359   -19.758744    1.9146766   -1.1744719   -8.0403566   -208.06319   -1.4965514   -9.1644031    197.75141   -1.1831432   -19.683485   -1.0414103   -1.0010324   -418.56261 
    6200    421.56319    1366.3941    1259.3033    436.91889    330.76586     1.746394   -1.1109554   -18.488512   -208.22538   -1.3218871    -19.74509    1.9283624   -1.1056786   -7.8157089   -208.09457   -1.4586044   -9.1905704    197.72409   -1.2020152   -19.653298   -1.0439613     -1.00089   -418.56522 
    6300    421.56319     1381.625    1255.9252    402.86615    330.58674    1.7075011   -1.1219496   -18.461855   -208.24442   -1.3095929   -19.792305    1.8202349   -1.0738458    -7.751914    -208.1382   -1.4206306   -9.2328238    197.79029   -1.2574834   -19.597396   -1.0465122   -1.0007476   -418.56783 
    6400    421.56319     1337.382    1302.0435    437.84343    329.77385    1.7044734   -1.0522479   -18.280242   -208.23219   -1.2632668   -19.850883    1.8821916   -1.0909455   -7.6281431   -208.17198   -1.4305442   -9.2909884    197.77315   -1.1704698     -19.5582   -1.0490631   -1.0006052   -418.57044 
    6500    421.56319    1324.5323    1248.5272    363.50785    330.06754    1.6832598   -1.1606453   -18.174023   -208.24048   -1.2814844   -19.815861    1.8327711   -1.1549005   -7.6405417    -208.1688   -1.4514883   -9.2739613    197.73877     -1.08035   -19.567155   -1.0516141   -1.0004627   -418.57305 
    6600    421.56319    1343.7356    1225.8532    340.51625    329.98301    1.7340498   -1.1473368   -18.011968   -208.27028   -1.3060024   -19.756173    1.9051927   -1.0781818   -7.4792751   -208.17971   -1.4379454   -9.2252045    197.71817   -1.0284636   -19.641375    -1.054165   -1.0003203   -418.57566 
    6700    421.56319    1264.4924    1192.3087     272.1189    330.72878    1.7626883   -1.2403057   -17.973438   -208.27449   -1.2807087   -19.730908    1.9110343    -1.184843   -7.3196717   -208.15018   -1.4547666   -9.1449481    197.72447   -1.0452364   -19.679935    -1.056716   -1.0001779   -418.57826 
    6800    421.56319     1280.025      1177.43    280.29988    330.84217    1.7705778   -1.2400445   -17.849784   -208.23315   -1.2790024   -19.668872    1.9826117   -1.1057284   -7.2036488    -208.0959   -1.4533627   -9.0675509    197.73854   -1.0240859   -19.664622   -1.0592669   -1.0000355   -418.58087 
    6900    421.56319     1255.618    1189.5789    247.46837    330.22375    1.6897577   -1.1626902   -17.772282   -208.24984   -1.3379369    -19.64237    1.9237221   -1.0684685   -7.1443203   -208.13595   -1.5209149   -9.0419532    197.75271   -1.0830222   -19.656598   -1.0618178  -0.99989305   -418.58348 
    7000    421.56319    1224.5886    1191.1199      268.313    330.49641    1.7133476   -1.1179195   -17.714905   -208.23224   -1.3096568   -19.617581    1.9720079   -1.0521711    -7.026002   -208.16403   -1.4790381   -9.0171336    197.72593   -1.0812976   -19.699184   -1.0643688  -0.99975062   -418.58609 
    7100    421.56319    1203.7224    1169.9083    217.07022    330.18604    1.7068305   -1.1560464    -17.66525    -208.2605   -1.3329091   -19.585699    1.8871279   -1.1485584   -6.9909038   -208.21146   -1.5191522   -9.0438397    197.71098   -1.1169723   -19.678283   -1.0669197   -0.9996082    -418.5887 
    7200    421.56319    1171.6377    1129.8425    197.05537    330.65118     1.654695    -1.177181   -17.628048    -208.2686   -1.3318186   -19.663113    1.8588186   -1.0825175   -6.9000927    -208.2064    -1.506373   -9.1243621    197.68209   -1.1076302   -19.732217   -1.0694706  -0.99946577   -418.59131 
    7300    421.56319    1170.9549    1140.9105    159.45584    330.45666    1.6794742   -1.2416655   -17.614538   -208.23723   -1.3364592   -19.744677    1.8256165   -1.1087381   -6.8836392   -208.18459   -1.4746239   -9.1780577    197.66273   -1.1154925   -19.675325   -1.0720216  -0.99932335   -418.59392 
    7400    421.56319    1214.5172     1105.858    158.19231    330.62327    1.6256667   -1.1791777   -17.615671   -208.19027   -1.3516901   -19.770947    1.7355491   -1.0609283   -6.9480805   -208.13454   -1.5013005   -9.2501144    197.64762   -1.1783263   -19.727899   -1.0745725  -0.99918093   -418.59653 
    7500    421.56319    1226.2305    1159.4593    166.75254    330.06018    1.6471817   -1.1682494   -17.630911   -208.23808   -1.3120882   -19.859553    1.8381043   -1.0421283   -6.9408194   -208.12964   -1.4775358   -9.3312655    197.65599   -1.1919896   -19.781943   -1.0771235   -0.9990385   -418.59914 
    7600    421.56319    1182.1054    1118.3645    111.44468    330.99608    1.6150189   -1.2428518   -17.673933   -208.25999   -1.3090995    -19.88907    1.8342934   -1.1731099   -7.0765722   -208.20275   -1.5035041   -9.3801425    197.60112   -1.2326812   -19.816444   -1.0796744  -0.99889608   -418.60175 
    7700    421.56319    1195.2191    1117.5494    141.44775    330.63025    1.6577723    -1.306653   -17.675632   -208.25851   -1.2928092   -19.966871    1.8757692    -1.338597   -7.0649196   -208.15167   -1.3982529   -9.4425541    197.59929   -1.1785095   -19.814965   -1.0822253  -0.99875366   -418.60436 
    7800    421.56319    1153.1715    1114.8076    139.24175    330.84778    1.6360375   -1.3567354   -17.900406   -208.24029   -1.2989373   -19.983164    1.8075663   -1.4099091   -7.3177188   -208.07267   -1.4612479   -9.4759548    197.63851    -1.137676   -19.813568   -1.0847763  -0.99861123   -418.60697 
    7900    421.56319    1191.7064    1116.3181    157.74322     330.8177    1.6334301   -1.3548039   -18.012769    -208.2459   -1.2796196   -19.950607    1.8027758   -1.3881299   -7.4218123   -208.06789   -1.4277876   -9.4383785    197.65845   -1.1047854   -19.780595   -1.0873272  -0.99846881   -418.60958 
    8000    421.56319    1179.5737    1149.6648    167.26842    329.98522    1.5708768   -1.4451487   -17.964755   -208.27642    -1.353414   -19.995956    1.7128524   -1.5008244   -7.3040703   -208.16755   -1.5107676   -9.4441627    197.67232   -1.0726849   -19.830697   -1.0898781  -0.99832639   -418.61219 
    8100    421.56319    1172.0766    1132.3582    109.37808    330.71453    1.6033775   -1.4635397   -17.916795      -208.25   -1.3363209   -19.979904    1.7687907   -1.4701123   -7.3458201    -208.1678   -1.4783422   -9.4412386    197.65812   -1.1478374   -19.923523   -1.0924291  -0.99818396    -418.6148 
    8200    421.56319    1175.1616     1135.456    159.52275    330.43562    1.5365464   -1.3979372   -17.923226   -208.24292   -1.2601124   -20.002798     1.775563   -1.3472022   -7.3397134   -208.12949   -1.4880578   -9.4455126    197.70157   -1.1272034    -19.94724     -1.09498  -0.99804154   -418.61741 
    8300    421.56319     1164.593    1129.1531    148.11435    330.69379    1.5140509   -1.4765572   -17.987723   -208.25097   -1.2666187   -20.042227    1.6494373   -1.4289703   -7.3615091   -208.12293    -1.488038    -9.479465    197.68912   -1.1449835   -19.974048    -1.097531  -0.99789912   -418.62002 
    8400    421.56319    1207.1576    1136.8194    138.75784    330.30161    1.5506479   -1.4126165   -18.011347   -208.22536   -1.2388105   -20.100411    1.7704762    -1.369647   -7.3731572   -208.11009   -1.4493948   -9.5343171    197.69111    -1.046631   -19.950097   -1.1000819  -0.99775669   -418.62263 
    8500    421.56319    1193.6742    1107.1848    144.14503    331.09722    1.5848111   -1.3437878   -17.905734   -208.23275   -1.2858424    -20.09263     1.857173   -1.2337215   -7.2666912   -208.14035    -1.500143   -9.5453507    197.72242   -0.9310039   -19.940834   -1.1026328  -0.99761427   -418.62524 
    8600    421.56319    1216.1209    1136.3271    155.03177    330.75521    1.5281394   -1.2477755   -17.921123    -208.2004   -1.2218636   -20.066027    1.7550394   -1.1202057   -7.2916931   -208.09839   -1.3869811   -9.5272475    197.76287  -0.86308804   -19.962588   -1.1051838  -0.99747185   -418.62784 
    8700    421.56319    1255.1669    1126.9725    160.65587    330.76722    1.5231596   -1.2109412   -17.897327   -208.18961   -1.1561295    -20.01177    1.8103928    -1.108144   -7.2855599   -208.05759   -1.2628827   -9.4844197    197.78956  -0.87415024   -19.957076   -1.1077347  -0.99732942   -418.63045 
    8800    421.56319    1277.1622    1188.8693    174.45072    329.91813    1.5893067   -1.1744121   -17.894307   -208.18526   -1.1402017   -20.002342    1.7913938   -1.1487371   -7.2352575   -208.02438   -1.2378971   -9.4670924    197.75058  -0.86287057   -19.880772   -1.1102856    -0.997187   -418.63306 
    8900    421.56319    1183.6251    1140.3943    89.527078    331.16018    1.5818679   -1.1129684   -17.857233   -208.20346   -1.1602597   -19.976951    1.6683649   -1.0861968   -7.1905891   -208.06768   -1.3008509   -9.4295785    197.76363  -0.88398771   -19.828309   -1.1128366  -0.99704458   -418.63567 
    9000    421.56319    1204.3633    1136.3501    140.97374    330.87292    1.4959723   -1.1678387   -18.032782   -208.21378   -1.1532507   -19.942916    1.5589208   -1.2040322   -7.3451153   -208.12931    -1.327196   -9.3957179    197.72546  -0.91492867   -19.885334   -1.1153875  -0.99690215   -418.63828 
    9100    421.56319    1155.0615    1123.6924    103.35368    331.65988     1.568589   -1.2150261   -18.036993   -208.28337   -1.1950422   -19.905128    1.7017288   -1.1375365   -7.4290559   -208.21809   -1.3138093   -9.2901049    197.71891  -0.94902742   -19.816941   -1.1179385  -0.99675973   -418.64089 
    9200    421.56319    1212.9945    1148.0831    149.02495    330.21439    1.5202252   -1.2527599   -18.194254   -208.26716   -1.2358699   -19.888835    1.7096491   -1.1740681   -7.5692032   -208.18732    -1.397785   -9.3116985    197.65023  -0.94054931   -19.767867   -1.1204894   -0.9966173    -418.6435 
    9300    421.56319    1195.9623    1142.1801    160.77224    330.64432    1.5181945   -1.2714814   -18.148404   -208.30925   -1.2836284   -19.861341    1.7075756   -1.1873975   -7.4296931   -208.23345   -1.4604796   -9.3477235    197.65414  -0.95658411   -19.759654   -1.1230403  -0.99647488   -418.64611 
    9400    421.56319    1227.9325    1149.8501    122.25265    330.85399    1.5214581   -1.2845934   -18.107984   -208.32764   -1.2794276   -19.767858    1.6636195   -1.2211608   -7.4446228   -208.18822   -1.4246091   -9.2555736    197.65028  -0.96045908   -19.681053   -1.1255913  -0.99633246   -418.64872 
    9500    421.56319    1231.8414     1195.386    148.22337    330.50193    1.6068288   -1.2475847   -18.207424   -208.32492   -1.2889052   -19.769054    1.7955618   -1.1690952   -7.6040988   -208.23292   -1.4467633   -9.2307679    197.61514    -1.007321   -19.582971   -1.1281422  -0.99619003   -418.65133 
    9600    421.56319     1211.166    1135.8588    147.82591    330.92762    1.6141547   -1.2274321   -18.272591   -208.33913   -1.2787481   -19.734319    1.8301007   -1.1513061   -7.7471533   -208.25843    -1.436032   -9.1755503    197.65638   -1.0359556   -19.542089   -1.1306931  -0.99604761   -418.65394 
    9700    421.56319    1230.8846    1195.2053    142.79407    330.47131    1.5872332   -1.2091774   -18.386339   -208.32486   -1.2478483   -19.689426    1.7459467   -1.1541592   -7.8410208   -208.21516   -1.4679448   -9.1424781     197.6472   -1.0531545   -19.537865   -1.1332441  -0.99590519   -418.65655 
    9800    421.56319    1197.6753    1158.6467    104.92271    331.10171    1.5963598   -1.1798878   -18.451394   -208.36299   -1.2611702   -19.625881    1.6783971   -1.0975372   -7.9710229   -208.22406   -1.4975613   -9.0285709    197.62988   -1.0513819   -19.567448    -1.135795  -0.99576276   -418.65916 
    9900    421.56319    1197.7241    1108.7517    53.052948    331.36927    1.5849484    -1.232539    -18.55475   -208.35463   -1.2756708   -19.550008    1.7502869   -1.1348265   -8.0496243   -208.23181   -1.5281113    -8.913177    197.61037   -1.0648819   -19.487566    -1.138346  -0.99562034   -418.66177 
   10000    421.56319    1186.3435    1092.8009    69.182735    330.95704    1.5528869   -1.1398577   -18.643617   -208.36143   -1.2036416   -19.533399    1.7381754   -1.0421958    -8.087666   -208.25036    -1.369189   -8.9656256    197.64288   -1.0376087   -19.508452   -1.1408969  -0.99547792   -418.66438 
   10100    421.56319    1234.6142    1091.6715    51.380873    330.80647    1.5682344    -1.063311   -18.711133   -208.35683   -1.2445414   -19.483929    1.7863494  -0.96974809   -8.1215015   -208.24889   -1.3715288    -8.921051    197.59939   -1.0213554   -19.452502   -1.1434478  -0.99533549   -418.66699 
   10200    421.56319    1215.5045    1119.3446    53.269294    330.82607    1.5316158   -1.1837227   -18.843491   -208.39472    -1.271752   -19.426953    1.7163687   -1.1732052    -8.287506   -208.33803   -1.3969823   -8.8546711    197.56289   -1.0041183   -19.442468   -1.1459988  -0.99519307    -418.6696 
   10300    421.56319    1167.7576    1096.2662    5.9897738    330.71541    1.5406803   -1.1601335   -18.791366   -208.41415   -1.2370425   -19.415526    1.7906585   -1.1610721   -8.2323637   -208.35489   -1.4293835   -8.8590605    197.51796  -0.99168746   -19.418285   -1.1485497  -0.99505065   -418.67221 
   10400    421.56319     1100.411     1021.839    -20.28443     330.7833    1.5419524   -1.1869276   -18.784132   -208.48051   -1.2191855    -19.35165     1.753455   -1.1466552   -8.2539013   -208.37439   -1.3894416   -8.8293307    197.47579   -1.0041138   -19.288171   -1.1511006  -0.99490822   -418.67481 
   10500    421.56319    1061.9222    999.21179   -100.59238    331.22105    1.5938129   -1.1925271   -18.769962   -208.49133    -1.211771   -19.254148    1.8151949   -1.1682361   -8.1539985   -208.40105   -1.3813095   -8.7389578    197.44015   -1.0127908   -19.186157   -1.1536516   -0.9947658   -418.67742 
   10600    421.56319    1040.7484    973.93933   -136.54659    330.87835    1.6334875   -1.1716478   -18.692086   -208.47071   -1.2436424   -19.224747    1.8346149   -1.1191377   -8.0726173   -208.38093   -1.3486303   -8.6933269    197.43485   -0.9823245    -19.11417   -1.1562025  -0.99462338   -418.68003 
   10700    421.56319    1053.9317    960.14608   -193.57395    329.77723     1.576071   -1.2369149   -18.624068   -208.44637   -1.2566193   -19.132585    1.8416141   -1.1696706   -7.9549378   -208.37644   -1.3822073   -8.5624581    197.46094   -1.0373505   -19.069307   -1.1587535  -0.99448095   -418.68264 
   10800    421.56319    972.88038    890.48506   -311.83898    330.73984    1.5723688   -1.2348133   -18.600365   -208.41768   -1.2860949   -19.112335    1.8051105   -1.1380544    -7.949732   -208.35739   -1.3865145   -8.5295925    197.43989   -1.0523856   -19.017301   -1.1613044  -0.99433853   -418.68525 
   10900    421.56319     895.6435    841.11265   -417.81122    331.17852     1.579427   -1.1513612   -18.619925   -208.48575   -1.2919206   -19.022765    1.7144904   -1.1040097   -7.9586801   -208.40934   -1.4142055   -8.4474839    197.48558   -1.0755461   -18.972605   -1.1638553   -0.9941961   -418.68786 
   11000    421.56319    920.04155    862.04705   -419.97758    330.26626    1.5254548   -1.0844536   -18.670509   -208.48873   -1.3372739    -19.01106    1.6654405  -0.99108499   -7.9885553    -208.3671    -1.509034   -8.4463013    197.47077   -1.1224422   -18.922336   -1.1664063  -0.99405368   -418.69047 
   11100    421.56319    836.99297    775.42918   -535.00966     330.6033    1.5516426   -1.0799947   -18.671819   -208.41521   -1.3549144   -19.035398     1.692893  -0.99457369   -8.0061594   -208.30492   -1.4885334   -8.4393522    197.48422   -1.1448251    -18.91467   -1.1689572  -0.99391126   -418.69308 
   11200    421.56319    799.89545    758.45069   -591.65916    330.71247    1.5194431   -1.0903386   -18.685678   -208.38684   -1.3327197   -19.077262    1.6798209   -1.0052394   -8.1567215   -208.26243   -1.5198365   -8.5192352    197.49635   -1.1506727    -18.92437   -1.1715081  -0.99376883   -418.69569 
   11300    421.56319    751.71986    726.43669   -649.47443    330.44425    1.4940518   -1.1763722   -18.682958   -208.39229   -1.2948094   -19.037567    1.6738043   -1.0661101   -8.1081952   -208.24551   -1.5126152   -8.4784615    197.51229   -1.1762199   -18.953095   -1.1740591  -0.99362641    -418.6983 
   11400    421.56319    761.30739    666.63593   -697.42518    330.12315    1.4894141   -1.1830224    -18.73025   -208.34122   -1.3493495    -19.10238    1.6625644   -1.1293881   -8.1533624   -208.22846   -1.5587999   -8.5626883    197.54555   -1.1676693   -19.066186     -1.17661  -0.99348399   -418.70091 
   11500    421.56319    704.07639    659.17778   -742.86122    330.18512    1.4166974   -1.1429527   -18.777237    -208.3512    -1.376303   -19.127714     1.606759   -1.1353206   -8.1555698   -208.23122    -1.566084   -8.6071735    197.49585   -1.1468878    -19.11824    -1.179161  -0.99334156   -418.70352 
   11600    421.56319    681.01291    659.62449   -796.96647    330.10645    1.4259581   -1.1490868   -18.753525   -208.36021   -1.4216731   -19.146248    1.5451494   -1.0429285    -8.128473   -208.23043    -1.580665    -8.578255    197.51064   -1.1167285   -19.174528   -1.1817119  -0.99319914   -418.70613 
   11700    421.56319    660.89458    578.29747   -806.35904    330.76919    1.4753531   -1.1798618   -18.705075    -208.3073   -1.3873497   -19.166305    1.6127634   -1.0436849    -8.103314   -208.20457   -1.5991064   -8.6567205    197.46827   -1.1099111   -19.218157   -1.1842628  -0.99305672   -418.70874 
   11800    421.56319     646.2845    613.83369   -809.93135    330.63823    1.4582886   -1.0578028   -18.716915   -208.32943   -1.3742535   -19.296211    1.6360761  -0.98584986    -8.154231    -208.2481   -1.4849863   -8.8115786    197.47866   -1.1012969   -19.258106   -1.1868138  -0.99291429   -418.71135 
   11900    421.56319    647.15368    594.14059   -866.35998    330.86035    1.4538282   -1.0333622   -18.716495   -208.38291   -1.2762127   -19.340657    1.6653526  -0.94101048   -8.0984957   -208.31242   -1.4109758   -8.8296298    197.52142   -1.0999597    -19.21958   -1.1893647  -0.99277187   -418.71396 
   12000    421.56319    707.80689     623.6837   -793.39138    329.81263    1.4484141   -1.0228437   -18.803654   -208.37915   -1.3158128   -19.386577    1.6661006   -1.0101956   -8.1173387   -208.29094   -1.4306564    -8.854946    197.53105   -1.0576915   -19.241097   -1.1919156  -0.99262945   -418.71657 
   12100    421.56319    686.08909    647.12828   -800.06899     330.5053    1.4617946   -1.0073278   -18.796123   -208.38489   -1.2641798    -19.40423    1.6925039  -0.97515406   -8.1518484   -208.36546   -1.3783607   -8.8912963    197.54988  -0.99840688   -19.240809   -1.1944666  -0.99248702   -418.71918 
   12200    421.56319    715.98477    659.64849    -753.5469    330.37385     1.560987   -1.0300476   -18.716894   -208.35307   -1.2546611   -19.405942    1.7302385   -1.0065882   -8.1541402    -208.2984   -1.4756055   -8.8525794    197.48523  -0.98120251   -19.284624   -1.1970175   -0.9923446   -418.72179 
   12300    421.56319     754.1117    710.35936   -681.92219    329.97897    1.5389712   -1.0331744   -18.638293   -208.34582   -1.2604234   -19.352675    1.6304396   -1.0614651   -8.0540752   -208.27044   -1.4916288   -8.8471964    197.52147   -1.0708971   -19.323123   -1.1995684  -0.99220218   -418.72439 
   12400    421.56319    818.79147      723.909   -598.28311    330.15351    1.5694216   -1.0029572   -18.634765   -208.34787   -1.2563401   -19.317099    1.6988496   -1.0040012   -8.0639913   -208.24733   -1.4688157   -8.8384924    197.50038   -1.0857549   -19.260694   -1.2021194  -0.99205975     -418.727 
   12500    421.56319    813.05665    750.25263   -607.04087    331.01218     1.531322   -1.0109287   -18.631602   -208.33876   -1.2428923   -19.344436    1.7023662   -1.0484498   -8.0298144   -208.21623   -1.4606752   -8.8426628    197.53451    -1.077581   -19.244821   -1.2046703  -0.99191733   -418.72961 
   12600    421.56319    854.70288    792.49057   -539.76212    330.44847     1.485234   -1.0784206   -18.589083   -208.32961   -1.3592992    -19.32012    1.7259987   -1.0942882   -8.0951555   -208.24062   -1.5588451   -8.7998632    197.52529   -1.1204514   -19.253053   -1.2072213  -0.99177491   -418.73222 
   12700    421.56319    842.86564    824.58359   -516.84344    330.29129    1.4465782   -1.0400111   -18.637491   -208.35593   -1.3521401   -19.308017    1.6596941   -1.0627638   -8.1365815    -208.2242   -1.4945427   -8.7321296    197.54379   -1.1004968   -19.238011   -1.2097722  -0.99163248   -418.73483 
   12800    421.56319     869.2481    853.20285   -454.67708    329.98123    1.4354769   -0.9831371   -18.596506   -208.35911   -1.2201137   -19.297303    1.6876495  -0.99127706   -8.0267173   -208.22674   -1.3609278   -8.6793775    197.54301   -1.0933384   -19.244993   -1.2123231  -0.99149006   -418.73744 
   12900    421.56319    934.55704    840.88605   -380.09747    330.40903    1.4896041  -0.92605044   -18.535307   -208.36736   -1.2352625     -19.2621    1.7548315   -0.8512782   -7.9518614   -208.21952   -1.3396557   -8.6658993    197.53271   -1.0334569   -19.196503   -1.2148741  -0.99134763   -418.74005 
   13000    421.56319    900.63589    835.94554   -385.86393    330.71701    1.5381489   -1.0268381   -18.564204   -208.37604   -1.2373978   -19.290529    1.7548094  -0.90793623    -7.935474   -208.25923   -1.3819487   -8.7528071    197.54524  -0.92858332   -19.196696    -1.217425  -0.99120521   -418.74266 
   13100    421.56319    888.98251     852.5889   -390.62061    330.32252    1.5463707  -0.98981326   -18.480185   -208.39484    -1.161494   -19.299078       1.8288  -0.84759644   -7.9068324   -208.26355   -1.3123173   -8.7846034    197.56301  -0.95259533   -19.189904   -1.2199759  -0.99106279   -418.74527 
   13200    421.56319    954.18104    862.21338   -369.88347    330.80973    1.4956912   -1.0120863   -18.453551   -208.39178   -1.1028275   -19.333832    1.7375351  -0.89447374   -7.8697391   -208.28597   -1.2521198    -8.778419    197.57577  -0.93626819   -19.201637   -1.2225269  -0.99092036   -418.74788 
   13300    421.56319    935.87109    898.78622   -327.01109    330.98297    1.5206594  -0.95500802   -18.545855   -208.39435   -1.1241334   -19.306007    1.7408729  -0.78538597   -7.9773263   -208.30786   -1.2666393   -8.7213215    197.58201  -0.94305946   -19.209627   -1.2250778  -0.99077794   -418.75049 
   13400    421.56319    954.57567    925.73591   -313.22426    330.84034    1.5417066  -0.97551846   -18.650826   -208.37094   -1.1457868   -19.296071    1.7232279  -0.82077247   -8.1071131   -208.28494   -1.2323711   -8.7236872    197.56715  -0.93477897   -19.268317   -1.2276288  -0.99063552    -418.7531 
   13500    421.56319    1015.1721    967.92746   -275.21232    330.28141    1.5563426  -0.85882571   -18.627162   -208.35638    -1.124126   -19.299607    1.7652299  -0.69242503    -8.063653   -208.25912   -1.2710865   -8.7536945    197.56782  -0.94170731   -19.295735   -1.2301797  -0.99049309   -418.75571 
   13600    421.56319    996.57903    988.17195   -269.58598    330.30586    1.5529678  -0.96014601   -18.564219   -208.37799   -1.1812353   -19.307299    1.7353188  -0.82031824   -8.0143492    -208.2625   -1.3329104   -8.7459597    197.53864  -0.97931352   -19.260957   -1.2327306  -0.99035067   -418.75832 
   13700    421.56319    970.05265    956.12808   -256.44937      331.465     1.553373   -1.0231001   -18.519028   -208.37265   -1.1325751   -19.333913      1.75041  -0.96705473   -7.9931225   -208.29262   -1.2610579   -8.7483978    197.53956  -0.97592953   -19.237877   -1.2352816  -0.99020825   -418.76093 
   13800    421.56319    991.25429    959.04896   -285.04369    331.21413    1.5651949   -1.0807207   -18.530635   -208.35327   -1.2170612   -19.342375    1.7967309   -1.0016316    -8.058138   -208.24474   -1.3532019   -8.7846833    197.52966  -0.96573832   -19.272915   -1.2378325  -0.99006582   -418.76354 
   13900    421.56319    1008.2811    1002.1462   -199.01782     330.8475     1.543702   -1.0672035   -18.544905   -208.38042   -1.2360967   -19.357838    1.7516209   -1.0369919   -8.0841157   -208.30002   -1.4385067    -8.809211    197.49056  -0.96686039   -19.269596   -1.2403834   -0.9899234   -418.76615 
   14000    421.56319    1035.6623    990.00885   -170.36202     331.0778    1.5075157   -1.1723978   -18.532741   -208.42674   -1.2068021   -19.363179    1.6554279   -1.1112047   -8.0819615   -208.29486    -1.420628   -8.8265049    197.47114   -1.0032284   -19.322338   -1.2429344  -0.98978098   -418.76876 
   14100    421.56319     1044.651    976.58355   -145.39585    331.11989    1.5565715   -1.1817379   -18.493479   -208.44328   -1.2270355   -19.431492    1.7358458   -1.1016468   -8.0034588   -208.32522   -1.4826271   -8.9083405    197.48651   -1.0333695   -19.283807   -1.2454853  -0.98963855   -418.77136 
   14200    421.56319    1020.7505    975.24148   -122.17444    330.83287    1.5035256   -1.2162872   -18.462393    -208.4365   -1.1559325   -19.470205    1.6199524   -1.1585248   -7.9307099   -208.30138    -1.387718   -8.9275123     197.4632   -1.0254327   -19.243913   -1.2480363  -0.98949613   -418.77397 
   14300    421.56319    993.28524    1004.5994   -120.61232    330.99714    1.5225565   -1.1503977   -18.382986    -208.4507   -1.1932856   -19.516048    1.6431978   -1.1158509   -7.7613571   -208.34074   -1.3378144   -8.9072577    197.49327   -1.0553095   -19.290091   -1.2505872  -0.98935371   -418.77658 
   14400    421.56319    1062.6115    1018.8879    -97.10951    330.56813    1.5186585   -1.1446571   -18.353661     -208.445   -1.1670823   -19.466953    1.6627686   -1.1280849   -7.7543918   -208.35672   -1.3431929   -8.8432207    197.46563   -1.0521972   -19.324514   -1.2531381  -0.98921128   -418.77919 
   14500    421.56319    1020.6936    988.80582   -111.22387    330.73769    1.4430468   -1.2090164   -18.277731   -208.47488   -1.2555041    -19.42571    1.5752063   -1.1420242   -7.6533768   -208.37371   -1.4235342   -8.8572418    197.50389   -1.0343859   -19.371197   -1.2556891  -0.98906886    -418.7818 
   14600    421.56319    1031.6216    998.17252   -150.46348    331.01335    1.4636877   -1.2504065    -18.20971   -208.43416   -1.2977828   -19.407738    1.6118862   -1.1549121   -7.5924315   -208.32277   -1.4638385   -8.8841687    197.47067   -1.0153929   -19.383337     -1.25824  -0.98892643   -418.78441 
   14700    421.56319    1020.8278    998.34723   -177.13302    331.12792    1.4617309   -1.1878372   -18.227873   -208.46357   -1.2739399   -19.440869    1.6500083    -1.121196   -7.6173389   -208.37949   -1.4722443   -8.8996884    197.46074   -1.0249133    -19.36827   -1.2607909  -0.98878401   -418.78702 
   14800    421.56319    1061.2223    1034.2587   -93.083505    330.28253    1.4632259   -1.1883866    -18.23969   -208.43064   -1.3384526   -19.453817     1.728536   -1.1564458   -7.7812687   -208.33653   -1.5122213    -8.910331    197.46501   -1.0360921   -19.369988   -1.2633419  -0.98864159   -418.78963 
   14900    421.56319    1021.8841    969.68023   -203.78689    331.64999    1.4416113   -1.2523791   -18.180416   -208.41975   -1.2523745   -19.428376     1.669005   -1.2183911   -7.6695549   -208.38742   -1.4028199   -8.8789893    197.48929    -1.048383   -19.431485   -1.2658928  -0.98849916   -418.79224 
   15000    421.56319    1006.0551    979.20697   -190.16327    331.12594    1.4113229    -1.264725   -18.197365   -208.35891   -1.1753213   -19.439803    1.6427955   -1.1933529   -7.6495896   -208.29908   -1.3134276   -8.8610422    197.49634   -1.0407714   -19.502171   -1.2684438  -0.98835674   -418.79485 
   15100    421.56319    1028.1204    994.32898   -143.33517    331.14014    1.4379882   -1.1859268   -18.259695    -208.3649   -1.1645252   -19.417492    1.6751962   -1.1128877   -7.6978775    -208.2516   -1.3469537   -8.8488494    197.53528  -0.97975885   -19.544079   -1.2709947  -0.98821432   -418.79746 
   15200    421.56319    1020.9766    986.13146   -157.78874    331.12954    1.4294437   -1.0787436   -18.213834   -208.37607   -1.1525689   -19.464085    1.6189232   -1.0334392   -7.6316947   -208.23909   -1.2982795   -8.8177629    197.55647  -0.88399365   -19.501664   -1.2735456  -0.98807189   -418.80007 
   15300    421.56319    1039.4364    1009.7623   -165.30196    330.43236    1.4219827   -1.0904349   -18.294841   -208.37851   -1.1568676   -19.550787    1.6619793  -0.98334018   -7.7568317   -208.21278    -1.278339   -8.9919248    197.56837  -0.85826711    -19.44882   -1.2760966  -0.98792947   -418.80268 
   15400    421.56319    1018.2036    1003.1978   -174.11916    331.02475    1.3830887   -1.0483024   -18.262649   -208.38424   -1.1226158    -19.57528    1.6120889  -0.93314693   -7.7337675   -208.23443   -1.3049371   -9.0136056    197.55223   -0.8391685   -19.451293   -1.2786475  -0.98778705   -418.80529 
   15500    421.56319      998.051    993.35261   -167.53595    331.03366    1.4170526   -1.0792355   -18.313402   -208.38615   -1.0799328    -19.59619     1.651584   -1.0192318   -7.7247361   -208.24408   -1.2605874   -9.0719105    197.50929  -0.79926223   -19.447377   -1.2811984  -0.98764462    -418.8079 
   15600    421.56319     1053.495    1036.3387   -132.33738    330.64074    1.3933429   -1.0871385   -18.337747   -208.38499   -1.0443926   -19.645702    1.5968964   -1.0245254   -7.8236823   -208.29073    -1.190787   -9.0908058    197.51292  -0.80913757   -19.464043   -1.2837494   -0.9875022   -418.81051 
   15700    421.56319     996.3884    989.72654   -163.33755    331.53185    1.3575405   -1.1226059   -18.401131   -208.41529  -0.98390428   -19.695358    1.5682241   -1.0003562   -7.8798852   -208.33732   -1.1635527   -9.1218843    197.48948  -0.83724079   -19.488396   -1.2863003  -0.98735978   -418.81312 
   15800    421.56319    1048.2464    1006.4806   -153.92334    330.83477    1.4178564   -1.1915635    -18.47562   -208.43834   -1.0155739   -19.717888    1.5689227   -1.0832811   -7.9895568   -208.33489   -1.1980183   -9.1331871    197.44597  -0.83121292   -19.510287   -1.2888513  -0.98721735   -418.81573 
   15900    421.56319    1017.9602    1025.6114   -144.03248    331.11695    1.3771297   -1.2666866   -18.441001   -208.44758   -1.0866226   -19.726135    1.4945898   -1.1923386   -7.9360214   -208.32828   -1.2484162   -9.1944253    197.47091  -0.76772331   -19.553027   -1.2914022  -0.98707493   -418.81834 
   16000    421.56319    1018.9028    1041.0145   -114.03942    330.83273    1.3630045    -1.165231   -18.495265   -208.42572   -1.1365987   -19.782822    1.4521053   -1.0970401   -7.9523385   -208.28108   -1.2920208   -9.2222382    197.46535  -0.80251298   -19.561649   -1.2939531  -0.98693251   -418.82094 
   16100    421.56319    1023.8323    1054.2781   -154.91833    330.78801    1.3565201   -1.1267258   -18.474786   -208.43694   -1.0716061    -19.79279    1.5241017   -1.0789345   -7.9865991   -208.31825   -1.2129216   -9.2846776    197.45578   -0.8769112   -19.562175   -1.2965041  -0.98679008   -418.82355 
   16200    421.56319    1040.3808    1043.7475   -96.600423    330.62852    1.3604653   -1.1405073   -18.491558   -208.41565    -1.078557   -19.819299    1.5687446   -1.0915515   -8.0259132   -208.28549   -1.2639174   -9.2878519    197.47815  -0.92588615   -19.567258    -1.299055  -0.98664766   -418.82616 
   16300    421.56319    1091.5178    1032.9669   -52.893165    330.49289     1.365247   -1.1567065   -18.608652   -208.38892   -1.1641229   -19.760659    1.6117293   -1.1235245   -8.1841955   -208.22418   -1.2885027   -9.1795913    197.48045  -0.88455734   -19.694616   -1.3016059  -0.98650523   -418.82877 
   16400    421.56319    1073.8328    1013.2613   -132.70016    331.03202    1.3052349   -1.0906412   -18.572517   -208.40514   -1.2035709   -19.717694     1.514368    -1.044642   -8.0533447   -208.25329   -1.3156682   -9.1397725    197.49596  -0.90547274   -19.701272   -1.3041569  -0.98636281   -418.83138 
   16500    421.56319    1048.9266    1032.2537   -119.73417    331.14867    1.2588814   -1.0976362   -18.551563   -208.43103   -1.1619852   -19.728064    1.4238552    -1.063981   -8.0163025   -208.28193   -1.3361197    -9.143291    197.50734  -0.94465925   -19.650945   -1.3067078  -0.98622039   -418.83399 
   16600    421.56319    1060.2973    991.94108   -114.37859    331.40779     1.329653   -1.0103413   -18.541539    -208.4359   -1.2022915   -19.722372    1.4914553  -0.99421494   -7.9821469   -208.32515   -1.3819139   -9.1644086    197.46662  -0.96508249   -19.573902   -1.3092588  -0.98607796    -418.8366 
   16700    421.56319    1091.1306    1040.2333   -43.528858    331.06277    1.3659722  -0.97004839   -18.613045   -208.42636   -1.2924081   -19.750098    1.5044746  -0.93878732   -8.0354461   -208.31635   -1.4418867   -9.2263343    197.47141   -1.0164376   -19.590997   -1.3118097  -0.98593554   -418.83921 
   16800    421.56319    1091.8817    998.11715   -57.773003    331.17373    1.3876064   -1.0492647   -18.692613   -208.46095   -1.2602873   -19.709388    1.5560161  -0.99762358   -8.1792262   -208.35962   -1.4650652   -9.1157465    197.44551    -1.000873    -19.63638   -1.3143606  -0.98579312   -418.84182 
   16900    421.56319    1079.7062    1053.0385   -46.214074    331.20142    1.4129213    -1.067315   -18.757677   -208.49847   -1.2210502   -19.676722    1.6325285   -1.0114575   -8.2299987   -208.40306   -1.4097851   -9.0743014    197.41325   -1.0369786   -19.675991   -1.3169116  -0.98565069   -418.84443 
   17000    421.56319    1129.5311    1032.1297   -29.602046    331.29155    1.4152587   -1.0512302   -18.776856   -208.50233   -1.2891102    -19.65903    1.6091768   -0.9562269   -8.2543513   -208.41859   -1.4476519   -9.0579874    197.40863   -0.9984871   -19.695238   -1.3194625  -0.98550827   -418.84704 
   17100    421.56319    1185.8751    1095.0136    60.447086    330.57794     1.381128    -1.049585   -18.841828   -208.49475   -1.3325113   -19.676438    1.6081499  -0.98002782   -8.3160391   -208.41778   -1.4982539   -9.1079334    197.44286  -0.98348325   -19.673332   -1.3220134  -0.98536585   -418.84965 
   17200    421.56319    1191.0261    1097.8981    106.11918     330.9378     1.390341    -1.026799     -18.8939   -208.48917   -1.3733303   -19.745151    1.5731969  -0.93677068   -8.3672924   -208.43897   -1.5613125   -9.2036249    197.44456  -0.98222074   -19.582226   -1.3245644  -0.98522342   -418.85226 
   17300    421.56319    1175.2342    1133.4013     138.5967    331.82678    1.4031198    -1.083361   -19.012842   -208.51945   -1.2986458   -19.808825    1.5991537   -1.0912778   -8.5013707   -208.47716    -1.461148   -9.2645325    197.39674   -1.0137614   -19.618605   -1.3271153    -0.985081   -418.85487 
   17400    421.56319    1248.4689    1222.4002     212.9101     330.8982    1.3862677   -1.0292876    -19.10474   -208.48305   -1.2198347   -19.796384    1.5941461   -0.9134161    -8.620573   -208.40776   -1.3829664   -9.2004141    197.35701   -1.0829509   -19.645924   -1.3296663  -0.98493858   -418.85748 
   17500    421.56319    1264.3521    1236.8821    281.89757    331.06396    1.4562864  -0.97154756      -19.124   -208.51899   -1.1724008   -19.810273    1.6532072  -0.85116642   -8.6079607   -208.42707   -1.3135137   -9.2444363    197.37076   -1.0456174   -19.681387   -1.3322172  -0.98479615   -418.86009 
   17600    421.56319    1309.5476    1271.4201    311.10033    331.57901    1.4134644  -0.99078896   -19.179046   -208.52981   -1.2106588   -19.862606    1.5816905  -0.92682532   -8.7053778    -208.4166   -1.3764059   -9.3086968    197.38638   -1.0095451   -19.712771   -1.3347681  -0.98465373    -418.8627 
   17700    421.56319     1346.069    1302.6468    383.79156    331.58713    1.3726819   -1.0330857   -19.234206    -208.5385   -1.2554879   -19.844627    1.5287246   -1.0464931   -8.6801734   -208.42293      -1.4155   -9.3285353     197.3744  -0.98709664   -19.781489   -1.3373191  -0.98451131   -418.86531 
   17800    421.56319    1385.7475    1324.1457    440.76004    332.07179    1.3815937   -1.0807036    -19.32156   -208.54212   -1.2466521   -19.863961    1.5443785   -1.0469431   -8.8422565   -208.43791   -1.4427617   -9.3004884    197.37699   -0.9552553   -19.839291     -1.33987  -0.98436888   -418.86791 
   17900    421.56319    1428.4232    1406.2902    498.63922    332.14982    1.3618688   -1.0186766   -19.394773   -208.51712   -1.2145814   -19.910121    1.5331256  -0.98554036   -8.9693075    -208.4014   -1.4141349   -9.3762989    197.34906  -0.94426798   -19.945936   -1.3424209  -0.98422646   -418.87052 
   18000    421.56319    1444.9106    1452.8497    577.95196    332.26142    1.3049541   -1.0619051   -19.527426   -208.49526   -1.2210115   -19.940597    1.5148957  -0.98968266   -9.0337702   -208.36998   -1.3599539   -9.4079556    197.36269   -0.9946077   -19.939169   -1.3449719  -0.98408404   -418.87313 
   18100    421.56319    1520.7779    1520.1093    703.10735    330.96778     1.375132   -1.0027175   -19.531408   -208.48909   -1.1683746   -19.962589    1.5846334  -0.87179922   -9.0584659   -208.35877   -1.3252353   -9.4225555    197.40051  -0.96650474   -19.957731   -1.3475228  -0.98394161   -418.87574 
   18200    421.56319    1514.9439    1491.0468     720.4248    331.65781    1.3603447  -0.95943453   -19.605468   -208.49889   -1.1630475   -19.968684    1.5318107  -0.88890494   -9.1035712   -208.40443   -1.3043086   -9.4198541    197.38648  -0.94506434   -19.958212   -1.3500737  -0.98379919   -418.87835 
   18300    421.56319    1502.2831    1508.6278    741.73855    332.34346    1.3290298  -0.93318661   -19.670044   -208.47353   -1.1726641   -19.944388    1.4831041  -0.90902176   -9.1531747    -208.4169   -1.3212511   -9.3850609    197.38185  -0.85566381   -19.926567   -1.3526247  -0.98365676   -418.88096 
   18400    421.56319    1546.8457    1521.5579    778.90411    332.32078    1.3496696  -0.92043803   -19.685621   -208.46461   -1.1146742   -19.907414    1.5026219  -0.88009637   -9.2565001   -208.38419   -1.2658936   -9.3702512    197.37925   -0.9098165    -19.86844   -1.3551756  -0.98351434   -418.88357 
   18500    421.56319     1582.422    1557.1118    868.95814    331.58551    1.3418225  -0.89441197    -19.60316   -208.49294   -1.0457754    -19.86795    1.5162841  -0.80056622   -9.1055683   -208.37644   -1.2136855   -9.4167676    197.40229  -0.89666386   -19.797495   -1.3577266  -0.98337192   -418.88618 
   18600    421.56319    1550.4897    1550.7636    788.42122     331.8808    1.3615181  -0.85445459    -19.66751   -208.51018   -1.0510203   -19.842303    1.5525192  -0.78554687   -9.1911331    -208.4065   -1.1934954   -9.3181685    197.33022  -0.92577522   -19.722065   -1.3602775  -0.98322949   -418.88879 
   18700    421.56319    1534.0873    1494.3587    783.55959    332.23552     1.390802  -0.85797999   -19.654355   -208.49501   -1.0471718   -19.774067    1.6170101  -0.80058157   -9.1522386   -208.41051    -1.190529   -9.2003903    197.30505  -0.90014765    -19.66383   -1.3628284  -0.98308707    -418.8914 
   18800    421.56319    1551.6967    1541.2789    761.80112    331.27272    1.4050537  -0.86428125   -19.690614   -208.50951   -1.0722906   -19.761591    1.6099158  -0.79681412    -9.207922   -208.40291   -1.2213618   -9.2344482    197.35638   -0.9191846   -19.577389   -1.3653794  -0.98294465   -418.89401 
   18900    421.56319    1517.6984    1532.8261    691.57983    331.53894    1.3905321  -0.86041761   -19.566175   -208.51932   -1.1234504   -19.643929    1.5417262  -0.79307209   -9.0560869   -208.41481   -1.2782275   -9.0886476    197.39867  -0.94459422      -19.538   -1.3679303  -0.98280222   -418.89662 
   19000    421.56319    1497.4356    1476.4921    605.71632    332.05551    1.3359495  -0.88616919   -19.548701   -208.51045   -1.1671487   -19.597982    1.5205545  -0.76803555   -9.0790757   -208.36472   -1.3045063   -9.0395647    197.36121  -0.88918483   -19.510007   -1.3704812   -0.9826598   -418.89923 
   19100    421.56319     1449.692     1414.997    580.88236     331.9138     1.347402  -0.92934921    -19.58906   -208.55756   -1.1876716   -19.496009    1.5158557  -0.81269854   -9.0430854   -208.42345   -1.3667913   -8.9510909    197.36079  -0.94079968   -19.480442   -1.3730322  -0.98251738   -418.90184 
   19200    421.56319    1416.8719    1387.4303    549.89657    331.25615    1.3745125   -0.9395979   -19.576474   -208.53323   -1.1375032   -19.505324    1.5570313  -0.85751345   -9.0382338   -208.40616   -1.3071806   -8.9393588    197.32031  -0.88169076   -19.442124   -1.3755831  -0.98237495   -418.90445 
   19300    421.56319    1360.0705    1350.5652    471.72021     331.7597    1.3700213  -0.97341833   -19.478221   -208.52045   -1.1064526   -19.472222    1.5940454  -0.88829973    -8.965856   -208.39436   -1.2649784   -8.8908023    197.30849  -0.90413043   -19.396143   -1.3781341  -0.98223253   -418.90706 
   19400    421.56319    1426.2496    1375.3939    490.83583    330.85574    1.3414173   -1.0104993    -19.50632   -208.53783   -1.0780697   -19.440761    1.5170475  -0.94504871   -8.9785445   -208.41305   -1.2258655   -8.8938566     197.3019  -0.91400736   -19.384808    -1.380685  -0.98209011   -418.90967 
   19500    421.56319    1375.6875    1354.8011    469.48228     331.2051    1.3490789   -1.0163948   -19.561164   -208.58705   -1.0601608   -19.444823    1.5493972   -1.0100768   -9.1136051   -208.46526   -1.1848558   -8.9253094    197.35046  -0.87741048   -19.363616   -1.3832359  -0.98194768   -418.91228 
   19600    421.56319    1356.8645    1346.8412     396.2332    330.91467    1.3634388   -1.0257288   -19.547157   -208.54201   -1.1049751    -19.45611    1.5652235   -1.0168456   -9.1322898   -208.44876   -1.2706181   -8.9272157    197.31902  -0.88667134    -19.34421   -1.3857869  -0.98180526   -418.91488 
   19700    421.56319    1320.5545     1306.262    359.73218    331.73581    1.3752535   -1.0952753   -19.585218    -208.5546   -1.0756971    -19.43653    1.5968939   -1.0434193   -9.1071885   -208.47179   -1.2135967   -8.8898013    197.31114  -0.92286817   -19.364531   -1.3883378  -0.98166284   -418.91749 
   19800    421.56319    1319.4504    1272.7488    356.64827    332.13457    1.4307051   -1.1899565    -19.55578   -208.52591   -1.1243482   -19.401308    1.6790156   -1.1847719   -9.0658483   -208.47198   -1.2577853   -8.8621306    197.27799  -0.91022469   -19.356694   -1.3908887  -0.98152041    -418.9201 
   19900    421.56319    1342.1315    1299.9983    410.54057    331.44173    1.3930392   -1.1624337   -19.562093   -208.57039   -1.1129633    -19.45804    1.6177248   -1.2040999    -9.108636   -208.49751   -1.2943408   -8.8917623    197.26861  -0.89992507   -19.388844   -1.3934397  -0.98137799   -418.92271 
   20000    421.56319    1294.7515     1260.135    308.98978    331.81356    1.4115904   -1.0629238   -19.477509   -208.61413   -1.1258051   -19.418068    1.6155277   -1.1234136   -8.9908185   -208.53941   -1.2825422   -8.8610323    197.27929  -0.94070149   -19.343658   -1.3959906  -0.98123556   -418.92532 
   20100    421.56319    1321.7734     1242.037    281.60804    331.15189    1.3594849    -1.089204   -19.449808   -208.65565   -1.1175029   -19.436666    1.5712888   -1.1181387   -8.9304487   -208.52826   -1.3137704   -8.8967241    197.22443   -0.9873468   -19.352298   -1.3985416  -0.98109314   -418.92793 
   20200    421.56319    1249.1836     1213.972    243.30528    331.57104    1.3260201    -1.131139   -19.413509   -208.64959   -1.1423308   -19.425858    1.5116174   -1.1324388    -8.856522   -208.50879   -1.3028115   -8.8956915    197.18525  -0.96341551   -19.369457   -1.4010925  -0.98095072   -418.93054 
   20300    421.56319     1266.847    1228.2096    238.52483    331.62231    1.2759183   -1.1681788   -19.307898   -208.69524   -1.1431162   -19.394279    1.4347071   -1.0991438   -8.8000489   -208.59353   -1.3234049    -8.853121     197.2188  -0.91599899   -19.360651   -1.4036434  -0.98080829   -418.93315 
   20400    421.56319    1279.9444    1216.9871    215.88364    331.07412    1.2728758   -1.2004152   -19.240125   -208.68754   -1.1443581   -19.371303    1.4042436   -1.1152006   -8.7757865   -208.59194   -1.3209481   -8.8244241    197.25299  -0.98048048   -19.351191   -1.4061944  -0.98066587   -418.93576 
   20500    421.56319    1214.6296    1213.8493    185.44066    331.28577    1.2580335   -1.1401195   -19.255613    -208.6083   -1.1233917   -19.388303    1.4525098   -1.1054182   -8.8174745   -208.49245   -1.3225657   -8.8197028     197.2387  -0.89067699   -19.361407   -1.4087453  -0.98052345   -418.93837 
   20600    421.56319    1225.5208    1196.4721    177.97656    331.15938     1.265328   -1.0724498   -19.247407    -208.6405   -1.1022242   -19.427682     1.434969    -0.963732   -8.7831727   -208.50478   -1.2477359   -8.8386225    197.27723   -0.8968051   -19.271092   -1.4112962  -0.98038102   -418.94098 
   20700    421.56319    1221.9564     1135.032    118.38829    331.50067    1.2910517  -0.95987859   -19.231277   -208.61966   -1.1440487   -19.398821     1.431242  -0.90524804   -8.7517977   -208.52489   -1.3114174   -8.8295533    197.23293  -0.85792123   -19.245623   -1.4138472   -0.9802386   -418.94359 
   20800    421.56319    1196.3056    1144.1052      112.501    331.67267    1.2255993   -0.9102107   -19.201222   -208.61571   -1.1432571    -19.44951    1.3654367  -0.85603646   -8.6360895   -208.48333   -1.3490716   -8.8751432    197.27956  -0.88888902   -19.256072   -1.4163981  -0.98009618    -418.9462 
   20900    421.56319    1197.5871    1180.4878    159.14411    331.38372    1.1985545  -0.94372133   -19.155742   -208.61574   -1.1119606   -19.413437    1.3021785  -0.86496749   -8.6151557   -208.49622     -1.29604   -8.8524544    197.25986  -0.93661959   -19.340932   -1.4189491  -0.97995375   -418.94881 
   21000    421.56319    1221.3033    1170.3159    150.34871    331.32544    1.1886474  -0.99947706   -19.137341   -208.62661   -1.0556734   -19.392874    1.3365967  -0.85468709   -8.6314746   -208.50322   -1.1816019    -8.866466    197.22908  -0.98894605    -19.33245      -1.4215  -0.97981133   -418.95142 
   21100    421.56319    1207.4035    1188.4628    132.56559    331.00832    1.1876463  -0.97213056    -19.13575    -208.6297   -1.1260283   -19.377015    1.3744256  -0.86149871    -8.657748   -208.53122   -1.2006369   -8.8531381     197.2482  -0.95171662   -19.419776   -1.4240509  -0.97966891   -418.95403 
   21200    421.56319    1174.9163    1143.5806    145.49164    331.51506    1.1448441   -0.9310094   -19.126234   -208.61158   -1.1475872   -19.390992    1.3461626  -0.83497211   -8.7353444   -208.54967   -1.2441529   -8.7587801     197.2895  -0.91848664    -19.44114   -1.4266019  -0.97952648   -418.95664 
   21300    421.56319    1219.5797    1208.1647    200.14808    330.66156    1.1512821  -0.89065998   -19.059747   -208.63567    -1.170536   -19.457243    1.3943942  -0.78412207   -8.6515247   -208.57367   -1.2939871   -8.8464794    197.29701  -0.88880941   -19.384918   -1.4291528  -0.97938406   -418.95925 
   21400    421.56319      1172.53    1178.4453    157.21412    331.60842    1.1638004  -0.83171784   -19.138755   -208.63261    -1.156324   -19.501228    1.3451095  -0.76766585   -8.6393322   -208.59222   -1.3476302   -8.9016078    197.24654  -0.88071967   -19.336425   -1.4317037  -0.97924164   -418.96186 
   21500    421.56319    1163.0524    1158.7565    146.97616    331.71949    1.2033483  -0.85946624   -19.090582   -208.63636   -1.1112534   -19.482384    1.4005221  -0.73201935   -8.6230689   -208.53887   -1.3423602   -8.9384794    197.18342  -0.86472892   -19.394733   -1.4342547  -0.97909921   -418.96446 
   21600    421.56319    1174.3211    1126.9591    127.43942    331.94373    1.2366029  -0.94543255   -19.019457   -208.68769   -1.0954053   -19.465359    1.4458013  -0.86491105    -8.578827   -208.51077   -1.2654865   -8.9229592    197.18288  -0.83035429   -19.432667   -1.4368056  -0.97895679   -418.96707 
   21700    421.56319    1244.2078    1215.5132    166.21199    330.53738    1.2257007  -0.95597272   -18.998987   -208.67077   -1.0793032   -19.541247    1.4026552  -0.89403216   -8.5236796   -208.53256   -1.2199019   -9.0434135     197.2071  -0.84760913   -19.504663   -1.4393566  -0.97881436   -418.96968 
   21800    421.56319    1222.2475    1236.0142    181.03569    330.43398    1.1528395  -0.97031702   -19.011662   -208.64981   -1.0360173   -19.639167    1.3216998  -0.91544382   -8.5351983   -208.50698   -1.2325426   -9.0719977    197.24355  -0.83525178   -19.487116   -1.4419075  -0.97867194   -418.97229 
   21900    421.56319    1194.0388    1153.4306    161.95085    331.21076    1.2136255  -0.99810642   -18.954979   -208.62939   -1.0588809   -19.709547    1.3974359  -0.92013219   -8.4285207   -208.52335   -1.2033911   -9.1469412    197.23876  -0.83895735   -19.501503   -1.4444584  -0.97852952    -418.9749 
   22000    421.56319    1213.8215    1185.1945     178.3621    330.81544    1.2588024   -1.0277105   -18.885223   -208.60916   -1.1056058   -19.707898    1.4193683  -0.93262681   -8.4192062   -208.47363   -1.2169333   -9.1818676    197.23783  -0.84445105   -19.570102   -1.4470094  -0.97838709   -418.97751 
   22100    421.56319    1194.0439    1151.5905    126.18833    331.28101    1.2649311   -1.0359695    -18.81939   -208.60442    -1.126974   -19.707912    1.3560824  -0.97936606   -8.3279766   -208.52888   -1.3183265   -9.1893147    197.24432  -0.78880143   -19.620987   -1.4495603  -0.97824467   -418.98012 
   22200    421.56319    1166.9647    1156.2107    110.73798    331.53988    1.2424864   -1.0192316   -18.790721   -208.61648   -1.1311796     -19.7474    1.3495702   -1.0065835   -8.3067646   -208.56269   -1.2991951   -9.2170428    197.25169  -0.78150064   -19.651874   -1.4521112  -0.97810225   -418.98273 
   22300    421.56319    1200.8386     1134.948    161.82494    331.53265    1.2003752   -1.0825854   -18.757778   -208.59512   -1.1257904   -19.762845     1.383498   -1.0249753   -8.3190354   -208.50281   -1.3295875    -9.203088    197.22466  -0.85065323   -19.730412   -1.4546622  -0.97795982   -418.98534 
   22400    421.56319    1180.8933     1164.804    133.31131    331.39723    1.1994891   -1.0581201   -18.770038    -208.6197   -1.0758749   -19.715598    1.4273822   -1.0188543   -8.3466702   -208.49936   -1.3416941   -9.1578823    197.24079   -0.8306594   -19.747642   -1.4572131   -0.9778174   -418.98795 
   22500    421.56319    1208.6555    1168.9059    143.73625    331.32523    1.1832989   -1.0777153   -18.745773    -208.6619   -1.0371763   -19.739446     1.416077   -1.0718284   -8.2809164   -208.52026   -1.3115618   -9.1572165    197.22522  -0.86213369   -19.742525   -1.4597641  -0.97767498   -418.99056 
   22600    421.56319    1132.1369    1164.5492     82.47807    331.96308    1.2007741    -1.104065   -18.796721    -208.6805   -1.0897091   -19.771362    1.3885213   -1.0300291   -8.3094957   -208.57042    -1.293278   -9.1353428    197.20408  -0.88428218   -19.687186    -1.462315  -0.97753255   -418.99317 
   22700    421.56319    1169.6224    1114.9627    75.869541    331.80135    1.1431113   -1.1338166   -18.817838   -208.71585    -1.146627   -19.719098    1.3027761   -1.0735175    -8.302127   -208.64685   -1.2722905   -9.1309335    197.21537  -0.89487762   -19.657276   -1.4648659  -0.97739013   -418.99578 
   22800    421.56319    1188.3251    1138.5211    139.65597    331.04854    1.1853405   -1.1908064    -18.80679   -208.74656   -1.1210608   -19.732929     1.407421   -1.1091514    -8.317612   -208.67052   -1.2175022   -9.1280614    197.20445  -0.88442489   -19.704114   -1.4674169  -0.97724771   -418.99839 
   22900    421.56319    1173.1431    1174.1186    125.37848    331.02766    1.1840143   -1.1532127   -18.817614   -208.74967   -1.1036843   -19.722951    1.4110258   -1.1088146   -8.3677471   -208.66388   -1.1995265   -9.2032994    197.19969  -0.94092069   -19.655912   -1.4699678  -0.97710528     -419.001 
   23000    421.56319    1170.7429    1144.1188    54.675365    331.56661     1.167474   -1.1441799   -18.813296   -208.74658   -1.1304923   -19.759507    1.4290401   -1.0775527   -8.3441746   -208.65826   -1.2513791   -9.1782047    197.15905  -0.90151688   -19.622358   -1.4725187  -0.97696286   -419.00361 
   23100    421.56319    1178.7917    1154.3413    62.078193    331.45863    1.1656178   -1.0841862   -18.837358   -208.74172   -1.1413472   -19.754711    1.3944671   -1.0607768   -8.3716642   -208.60435   -1.2731208   -9.2037384    197.14961  -0.87134568   -19.603956   -1.4750697  -0.97682044   -419.00622 
   23200    421.56319    1190.8028    1147.6659    74.968897    331.03149    1.1524808   -1.0956268   -18.842872   -208.71424   -1.1533112   -19.775514    1.3448437   -1.0296995   -8.3580589   -208.57207   -1.2568171   -9.1686254    197.17578  -0.87889687   -19.671658   -1.4776206  -0.97667801   -419.00883 
   23300    421.56319    1177.2001    1152.1975    117.55198    331.19206    1.1689218   -1.1999622   -18.897813   -208.69138   -1.1548845   -19.810945    1.3090463    -1.115581   -8.4618207   -208.51198   -1.2971489   -9.1768374    197.22082  -0.91211849   -19.690857   -1.4801716  -0.97653559   -419.01143 
   23400    421.56319    1159.6932    1146.5382    89.260924    331.21344    1.1795093   -1.1458171   -19.013374   -208.69663   -1.1247565   -19.843927    1.3078874   -1.0701332   -8.6198601   -208.54457   -1.2876797   -9.3226139    197.21875  -0.89476901   -19.672091   -1.4827225  -0.97639317   -419.01404 
   23500    421.56319    1144.4419    1119.1935    21.406195    331.48628    1.1591048   -1.1653234   -18.974703   -208.66858    -1.120878    -19.85634    1.3318388   -1.0968131   -8.5331897   -208.55147   -1.2514077   -9.3207507    197.18379  -0.85589486    -19.68529   -1.4852734  -0.97625074   -419.01665 
   23600    421.56319    1188.1468    1130.6311    36.156438    330.83949    1.1535753   -1.0817627   -19.063493   -208.64375   -1.1644437    -19.92265    1.3000014  -0.97991184   -8.6574712   -208.53953   -1.3485491   -9.4120647    197.18611  -0.94297551   -19.744055   -1.4878244  -0.97610832   -419.01926 
   23700    421.56319    1135.9488    1113.6346   -11.941849    331.17754    1.1822426   -1.1069778   -19.109433    -208.6141     -1.12703   -19.934106    1.3846831   -1.0474902   -8.7300385   -208.50654   -1.2974963   -9.3911268    197.20227  -0.97968491     -19.7112   -1.4903753  -0.97596589   -419.02187 
   23800    421.56319    1087.8241    1052.8097   -32.610418    331.24634    1.1861944   -1.1310366   -19.085865   -208.64937   -1.1776604   -19.919252    1.3813245   -1.0810163   -8.6150011   -208.54461   -1.3015838   -9.3572201    197.21543   -1.0179056   -19.792052   -1.4929262  -0.97582347   -419.02448 
[...]
  999000    421.56319    1248.1824    1250.0953    186.05504    331.97617   -23.584825   0.20221438   -45.472348    -233.5094   0.18570352   -45.054655   -23.400121   0.23231026   -35.126231   -233.43546   0.07424836   -34.496958    172.28999   0.32986161   -45.051273   -26.369667   0.41309067   -444.47192 
  999100    421.56319    1278.8291    1219.8522    216.13757    331.45373   -23.605186   0.17031976   -45.485958   -233.53277   0.15070419   -45.076345   -23.400619   0.23116114   -35.138135   -233.44578 -0.00086579886   -34.537507    172.26244   0.35850227   -45.106226   -26.372218   0.41323309   -444.47453 
  999200    421.56319    1259.2943    1220.4242    239.84909    331.77198   -23.611552   0.17380464   -45.425727   -233.55087   0.16816054    -45.10482   -23.423493   0.23229513   -35.085013    -233.4606 -0.0026023293   -34.595932    172.23266   0.39071296    -45.13743   -26.374769   0.41337551   -444.47714 
  999300    421.56319    1300.9346    1251.5247    232.94939    331.32941   -23.626186   0.17320131   -45.420287   -233.53709   0.16406623   -45.154121   -23.450688    0.2783699   -35.120137   -233.41135   -0.0204606   -34.702184    172.23578   0.37959372   -45.143477    -26.37732   0.41351794   -444.47975 
  999400    421.56319    1256.1077    1217.6281    213.93488    331.93995    -23.64209   0.17657527   -45.426491    -233.5441   0.18571908   -45.166617   -23.499963   0.25403714   -35.111008   -233.41773  0.049261859   -34.708935    172.21563   0.35178293   -45.112389   -26.379871   0.41366036   -444.48236 
  999500    421.56319    1239.6081    1218.8229    228.34985    332.36811   -23.620063   0.21540433     -45.4477   -233.56218   0.20122889   -45.190442   -23.386806   0.29002574   -35.092802   -233.44266  0.094204981    -34.68737    172.23483    0.3685366    -45.09894   -26.382421   0.41380278   -444.48496 
  999600    421.56319    1267.9679    1228.0296    196.84625    332.09096   -23.610788   0.15679418   -45.441152   -233.56372   0.17110327   -45.195114   -23.384699   0.20247198   -35.082863   -233.43188    0.0443978   -34.679591    172.27423   0.39232549    -45.08556   -26.384972   0.41394521   -444.48757 
  999700    421.56319    1270.8744    1239.8129    219.67568     331.5399   -23.663275   0.20979202   -45.459826    -233.5726   0.16028777   -45.180988   -23.465258   0.27927651   -35.141172   -233.48894 0.0096529381   -34.641069    172.25956   0.41349462      -45.103   -26.387523   0.41408763   -444.49018 
  999800    421.56319    1216.8124    1222.6456    226.04469    331.97113   -23.667954   0.24750773   -45.462664   -233.54603   0.16159351     -45.1648   -23.530466   0.26299635   -35.174905   -233.41763 -0.019666935   -34.597549    172.25412    0.4535829   -45.118862   -26.390074   0.41423005   -444.49279 
  999900    421.56319    1267.5174    1246.4256    212.60237    331.68326   -23.649713   0.27732626   -45.484104   -233.58959   0.18524537   -45.187903   -23.548488   0.29654713   -35.134684   -233.49526 0.0018313084   -34.666758    172.23485   0.44717084   -45.066234   -26.392625   0.41437248    -444.4954 
 1000000    421.56319    1264.4732    1246.8063    197.35286    331.59063   -23.639162   0.31526496   -45.481041   -233.56534   0.12197198   -45.212537   -23.485081   0.37770847   -35.185527   -233.46093 -0.068465345   -34.742699    172.19604   0.45092928   -45.031232   -26.395176    0.4145149   -444.49801 
 1000100    421.56319    1234.9289    1265.1173    184.37896    331.73287   -23.695507   0.33036516   -45.508904   -233.60114  0.064885891   -45.248868   -23.525125   0.41577288   -35.223442   -233.50115  -0.12970386    -34.74022    172.15878   0.36881414   -45.079387   -26.397727   0.41465732   -444.50062 
 1000200    421.56319      1253.19    1234.4297    160.86308    331.25247   -23.709363   0.29092898     -45.5215   -233.64562  0.093185105   -45.213993   -23.540838   0.37256766   -35.231257    -233.5108  -0.10168097   -34.708259    172.14842   0.32980905   -45.100428   -26.400278   0.41479975   -444.50323 
 1000300    421.56319    1186.6041    1200.4669    118.16001    331.80389   -23.712119   0.30757265   -45.466379   -233.62104   0.08969442   -45.188519   -23.510934   0.37146092   -35.151255   -233.54378 -0.097937745   -34.708571    172.15641   0.24991502   -45.155233   -26.402829   0.41494217   -444.50584 
 1000400    421.56319    1210.8486    1172.2324      82.7886    331.89716   -23.721506   0.30164677   -45.440667    -233.6232  0.052492083   -45.148011   -23.521319   0.42144866   -35.140534   -233.56861  -0.11962183   -34.661679    172.22027   0.27249441   -45.161494    -26.40538    0.4150846   -444.50845 
 1000500    421.56319    1170.0111    1183.9629    59.694564    331.82917   -23.775712    0.2659293   -45.453578   -233.61231  0.028760023   -45.154348   -23.588908    0.4101925   -35.099834   -233.59695  -0.13074225    -34.63973    172.24767   0.33824127   -45.184401   -26.407931   0.41522702   -444.51106 
 1000600    421.56319    1200.3082    1153.4252    28.556645    331.81662    -23.72208   0.24422276   -45.425793   -233.57067  0.019691441   -45.185512   -23.551958    0.3380432   -35.082933   -233.50685  -0.11354077    -34.65339    172.26733   0.34525409   -45.192088   -26.410482   0.41536944   -444.51367 
 1000700    421.56319    1165.7704    1134.5959    74.190054    331.92542   -23.780225   0.26247514   -45.377598   -233.53176  0.086009223   -45.203537   -23.591174   0.32895011   -35.066324   -233.44956 -0.065815468   -34.612854    172.28762   0.33102628    -45.09116   -26.413033   0.41551187   -444.51628 
 1000800    421.56319      1129.78    1137.7566    43.677519    332.41053   -23.783008   0.28226363   -45.407145   -233.53979  0.075657752    -45.22014   -23.606121   0.35181349   -35.059917   -233.42182 -0.087322293   -34.650671     172.3155    0.2666346   -45.043589   -26.415584   0.41565429   -444.51889 
 1000900    421.56319    1203.9624    1180.9215    80.829594    331.12412   -23.767781   0.28830301   -45.470628   -233.50999  0.057340862   -45.181315   -23.607297   0.34155263   -35.144763   -233.39119  -0.11699997   -34.670782    172.30759   0.36184752   -45.075427   -26.418135   0.41579671    -444.5215 
 1001000    421.56319    1192.8479    1140.5074     50.21692    331.30153   -23.808212   0.33165266    -45.48016   -233.50942  0.024604641   -45.164292   -23.641177   0.33475314   -35.188966   -233.36443  -0.11270536   -34.659662    172.30712   0.32038691   -45.060445   -26.420686   0.41593914   -444.52411 
 1001100    421.56319    1135.8665    1162.4578    26.061711    331.45464   -23.804523   0.32673733   -45.420591   -233.51917  0.092932349   -45.177912   -23.657643   0.34079277   -35.092018   -233.39828  -0.06341248   -34.681361    172.27465   0.35405867   -45.115808   -26.423236   0.41608156   -444.52672 
 1001200    421.56319    1148.3062    1131.8013    51.291845    331.44509   -23.833338   0.29316778   -45.382594   -233.53971    0.1030234    -45.17636   -23.648408   0.33004186   -35.082968   -233.37788 -0.038266402     -34.6915     172.3083   0.31143763   -45.100509   -26.425787   0.41622398   -444.52933 
 1001300    421.56319     1162.778    1149.2297    4.3554197    331.72929   -23.800238   0.23061006   -45.392202   -233.50934   0.12444653   -45.180038   -23.650625   0.28152991   -35.068774   -233.33051 -0.057448534   -34.642644    172.32074    0.3238759   -45.138289   -26.428338   0.41636641   -444.53193 
 1001400    421.56319    1179.1259    1124.8296    4.7211294    331.56175   -23.818334   0.21888277   -45.386394   -233.49071   0.14192003   -45.242785    -23.69107   0.23446526   -35.029801   -233.33022 -0.019324228   -34.737521    172.32584     0.391283   -45.116179   -26.430889   0.41650883   -444.53454 
 1001500    421.56319    1150.6203    1097.6219   -20.962963     331.9838   -23.799631   0.23197695   -45.410881   -233.45557   0.15332736    -45.19343     -23.6788   0.25514657   -35.053946   -233.31877 -0.0024859945   -34.673541    172.35249   0.27054299   -45.090721    -26.43344   0.41665125   -444.53715 
 1001600    421.56319     1162.354    1075.3537   -48.706368    331.84919   -23.784194   0.22365821   -45.497868   -233.47046    0.1589689   -45.189584   -23.616883   0.29472528   -35.185166   -233.37451 -0.022693475   -34.624138    172.34796   0.31428831   -45.089843   -26.435991   0.41679368   -444.53976 
 1001700    421.56319     1158.995    1150.9502   -28.943501    331.31369   -23.802221   0.24084305   -45.545586   -233.49475   0.14815256   -45.216353   -23.612561   0.34214568   -35.212042    -233.4112  0.011032234   -34.691135    172.32963   0.38034911   -45.139126   -26.438542    0.4169361   -444.54237 
 1001800    421.56319    1126.3052    1104.2178   -37.337976    331.69298   -23.830267   0.19797061   -45.592387   -233.55976   0.13729773    -45.22919   -23.660708   0.28752856   -35.256008   -233.47387 -0.0035917286   -34.672767     172.3071   0.35007295   -45.129572   -26.441093   0.41707852   -444.54498 
 1001900    421.56319    1153.6894    1126.7795   -21.562937     331.4244   -23.836958   0.19743944   -45.605174   -233.58103   0.17642842   -45.200206   -23.696361   0.28588529   -35.304097   -233.44455  0.025049627   -34.662682    172.24305   0.32124582   -45.135061   -26.443644   0.41722095   -444.54759 
 1002000    421.56319    1185.1605     1123.241     22.11452    331.32302   -23.795881   0.25309443   -45.517771   -233.60373   0.17206294   -45.180423   -23.618112   0.35834571   -35.294182    -233.4671 0.0051573342   -34.662388    172.21653   0.30007192   -45.143011   -26.446195   0.41736337    -444.5502 
 1002100    421.56319    1139.7732    1063.7569    19.464219    332.02577   -23.814821   0.30304914   -45.510468    -233.6286   0.11673461   -45.220962   -23.612739   0.33965975   -35.218347   -233.48632 -0.042875102   -34.726228    172.22438   0.33861898    -45.12124   -26.448746    0.4175058   -444.55281 
 1002200    421.56319    1106.3949    1087.0283    9.4694086    331.68415   -23.802145   0.33497601   -45.503403   -233.62488  0.097894951   -45.219064   -23.586169   0.37084448   -35.160381   -233.52019 -0.067196261   -34.710179    172.16477   0.35784966   -45.085267   -26.451297   0.41764822   -444.55542 
 1002300    421.56319    1084.0731    1080.4829   -27.359196    331.65065   -23.857155   0.36229316   -45.529813   -233.60078  0.090295814   -45.206835   -23.635661   0.40433669   -35.223837   -233.51321 -0.055716334   -34.682706    172.16328   0.32108471   -45.125708   -26.453848   0.41779064   -444.55803 
 1002400    421.56319    1109.8238    1085.8507   -57.735043    331.64905   -23.848598   0.29577536   -45.516304   -233.69537   0.12726121   -45.197786   -23.615727     0.355818   -35.236301   -233.58862 -0.051505272   -34.669235    172.19787   0.31750716   -45.163926   -26.456399   0.41793307   -444.56064 
 1002500    421.56319    1111.7377    1058.5193   -104.16684    331.93866   -23.822817   0.37957685   -45.562776   -233.72837   0.17139305    -45.21398   -23.652243   0.48325788   -35.225873   -233.63512 -0.034017376   -34.696077    172.14621    0.2780928   -45.144229    -26.45895   0.41807549   -444.56325 
 1002600    421.56319     1099.042    1072.8212   -121.21361    331.49819   -23.793133   0.41170335   -45.551708   -233.74748   0.12351627   -45.177957   -23.632118   0.50033484   -35.207771   -233.61515 -0.090437476   -34.688447    172.12356   0.31607297   -45.093268   -26.461501   0.41821791   -444.56586 
 1002700    421.56319    1068.7627    1028.9747    -140.5027    331.55234   -23.816998   0.39332571   -45.552129    -233.7113  0.073415871   -45.195503   -23.637066   0.47691139   -35.199828   -233.55554  -0.12967116   -34.684265    172.04948   0.39030621   -45.055781   -26.464051   0.41836034   -444.56847 
 1002800    421.56319    1107.3137    1106.0501   -103.18711    330.77301    -23.79322   0.38934689   -45.569022   -233.74755   0.12248042   -45.175446   -23.662569   0.48345285   -35.235919   -233.61064 -0.093944661    -34.66191    172.06253    0.4193063   -45.070508   -26.466602   0.41850276   -444.57108 
 1002900    421.56319    1100.7882    1055.2539   -92.224111    331.23282   -23.785335   0.39967006    -45.55054   -233.75981   0.11495071   -45.212418   -23.641223   0.46703299   -35.285913   -233.63954 -0.024198583   -34.710163    172.04292   0.38534663   -45.067275   -26.469153   0.41864518   -444.57369 
 1003000    421.56319    1089.3089    1097.3467   -75.704658    331.07431    -23.82879   0.30972793   -45.575308   -233.77909   0.17741441   -45.176124    -23.67274   0.36985862   -35.267818   -233.71126  0.051475272   -34.633568    172.04417   0.40783282   -45.103256   -26.471704   0.41878761    -444.5763 
 1003100    421.56319     1080.501    1096.0499    -93.52115    331.20781   -23.820062   0.28681219   -45.530145   -233.76734   0.18288453   -45.191013   -23.648025   0.37894645   -35.228507   -233.67595  0.072674303   -34.653737    172.04857    0.3323656   -45.086115   -26.474255   0.41893003   -444.57891 
 1003200    421.56319    1076.5714    1025.5278     -142.511    331.31934   -23.810218   0.24551718   -45.528171   -233.73958   0.17988193   -45.191599   -23.630389   0.28664434   -35.239553   -233.61597  0.044213994   -34.712645    172.05564   0.35466457   -45.061972   -26.476806   0.41907245   -444.58151 
 1003300    421.56319    1065.0001     1055.594   -149.83367    331.72799   -23.816172   0.23295968   -45.496308   -233.71103   0.12653924   -45.193842   -23.600036   0.27366412   -35.156188   -233.55909 0.0018075839   -34.690763     172.0806   0.38000246   -45.069527   -26.479357   0.41921488   -444.58412 
 1003400    421.56319    1046.4623    1046.2218   -158.84629    331.18851   -23.808287   0.25601373   -45.523733   -233.69119  0.093563317   -45.147554   -23.639003   0.34623703   -35.151243   -233.55262  -0.05320934   -34.618937    172.10722   0.35494899   -45.073493   -26.481908    0.4193573   -444.58673 
 1003500    421.56319    1023.6501    1020.1386   -187.44909    331.66211    -23.79159   0.30542508   -45.558251   -233.65734   0.15576821   -45.122321    -23.61678   0.36286142   -35.259891    -233.5581   -0.0101236   -34.598145    172.09142    0.3317975   -45.126806   -26.484459   0.41949972   -444.58934 
 1003600    421.56319    1039.3066    1034.2364    -240.5791    331.15104   -23.838221   0.28326115   -45.565268   -233.68619   0.18754005   -45.104501   -23.687808   0.32026165   -35.238417   -233.62216 -0.0044277846   -34.609161    172.10573   0.34013571   -45.157144    -26.48701   0.41964215   -444.59195 
 1003700    421.56319    1009.6126    998.39189   -274.06688    331.16447   -23.850159   0.25626209   -45.550306   -233.67729   0.10688937   -45.144681   -23.672338   0.31388738    -35.23926   -233.59561  -0.08630606   -34.611025    172.12682    0.4222883   -45.109537   -26.489561   0.41978457   -444.59456 
 1003800    421.56319     982.6054    962.33289   -274.37742    331.60788   -23.874996   0.25491616   -45.510524    -233.7245   0.08550215   -45.135252   -23.715694   0.22846757   -35.172123   -233.63993  -0.10886025   -34.631173     172.1093    0.4401094   -45.052627   -26.492112     0.419927   -444.59717 
 1003900    421.56319    998.65452    953.09821   -294.52674    331.35556   -23.910556   0.23327776   -45.541907   -233.77813   0.11054427   -45.172799   -23.770907   0.30142542   -35.194867   -233.70391 -0.058772818   -34.653328    172.07064   0.44929966   -45.068465   -26.494663   0.42006942   -444.59978 
 1004000    421.56319     981.1463    964.20287   -296.24099    331.30506   -23.924398   0.21060349   -45.510104   -233.73623    0.1578653   -45.074166   -23.766028   0.25740648   -35.151088   -233.67519  -0.01937156    -34.55459    172.04783   0.38375369    -45.04537   -26.497214   0.42021184   -444.60239 
 1004100    421.56319    973.90841    954.35303   -293.84994    331.37056   -23.905359   0.19722331    -45.46665   -233.73425   0.19651686   -45.096101   -23.719208   0.26106719   -35.106243   -233.66477   0.05732384   -34.590315    172.03451   0.34422166   -45.014173   -26.499765   0.42035427     -444.605 
 1004200    421.56319    968.21369     940.5857   -275.22371    331.00512   -23.889773   0.17824302   -45.461894   -233.72727   0.22062647   -45.093914   -23.720288   0.26902509   -35.155443   -233.65599  0.064905138   -34.590445    172.05593   0.33871286   -45.047759   -26.502316   0.42049669   -444.60761 
 1004300    421.56319    986.30775    956.84851   -319.89477    331.16548   -23.890529   0.19115256    -45.47993   -233.74225   0.23220647   -45.075133   -23.685118   0.26323786   -35.161595   -233.60452  0.049729562   -34.560286    172.09934   0.35816597   -45.029071   -26.504866   0.42063911   -444.61022 
 1004400    421.56319    949.12645    909.11924   -315.09178    331.58855   -23.893367   0.18814454   -45.509914   -233.75009   0.26202121     -45.1066   -23.716384   0.25181992   -35.172758   -233.62851  0.084495502    -34.56911    172.08855   0.38419361   -45.070291   -26.507417   0.42078154   -444.61283 
 1004500    421.56319    937.92369    917.63816   -303.40387    331.44744   -23.920449   0.24577174   -45.548106   -233.74492   0.24658198   -45.123863   -23.728284   0.29880913   -35.273041   -233.59983   0.10433691   -34.619287    172.08857   0.44239993   -45.030296   -26.509968   0.42092396   -444.61544 
 1004600    421.56319    973.99606    935.91131   -368.04461    331.09652   -23.916028   0.21967986   -45.488891   -233.75192   0.25002836   -45.107007   -23.738146   0.28860472    -35.16946   -233.63148  0.069833416   -34.574241     172.0853   0.47700542   -45.045864   -26.512519   0.42106638   -444.61805 
 1004700    421.56319    925.75899    913.21654   -423.30571    331.23743   -23.906491   0.22438863   -45.465298   -233.72085   0.24716762    -45.10571   -23.680474   0.32615601   -35.108606   -233.60432  0.070733743   -34.608028    172.11277   0.46657687   -45.013019    -26.51507   0.42120881   -444.62066 
 1004800    421.56319    939.57459    907.01105   -370.34823    331.36306   -23.912127   0.22460923   -45.478613   -233.73696   0.21256889   -45.073401   -23.685868   0.32984308    -35.15175   -233.64423  0.061312567   -34.597433      172.116   0.47780745   -45.015544   -26.517621   0.42135123   -444.62327 
 1004900    421.56319     965.4998    941.16326   -343.19797    330.93276   -23.869964   0.25650235   -45.501783   -233.71675   0.17498167   -45.082981   -23.645081   0.34604514   -35.157518   -233.60436 0.00075996716   -34.586397    172.08152   0.47867531   -45.051131   -26.520172   0.42149365   -444.62588 
 1005000    421.56319    946.83976    898.28075   -399.35819    331.68219   -23.875949   0.30985148    -45.48292   -233.74052   0.19286629   -45.059499   -23.711149   0.39320495   -35.189595   -233.60234  0.032175026   -34.508678     172.0909   0.44924462    -45.03892   -26.522723   0.42163608   -444.62848 
Loop time of 5859.77 on 512 procs for 1000000 steps with 346944 atoms

Performance: 29.489 ns/day, 0.814 hours/ns, 170.655 timesteps/s
99.9% CPU use with 512 MPI tasks x no OpenMP threads

MPI task timing breakdown:
Section |  min time  |  avg time  |  max time  |%varavg| %total
---------------------------------------------------------------
Pair    | 1328       | 3736.2     | 4011.8     | 888.7 | 63.76
Neigh   | 2.1076     | 27.96      | 31.11      | 123.7 |  0.48
Comm    | 569.01     | 705.9      | 1356.2     | 587.1 | 12.05
Output  | 5.7365     | 5.8626     | 6.7606     |   1.8 |  0.10
Modify  | 42.561     | 46.835     | 56.408     |  31.1 |  0.80
Other   |            | 1337       |            |       | 22.82

Nlocal:    677.625 ave 728 max 0 min
Histogram: 16 0 0 0 16 16 0 0 0 464
Nghost:    2807.05 ave 3155 max 0 min
Histogram: 16 0 0 0 16 16 0 0 0 464
Neighs:    47762.4 ave 52363 max 0 min
Histogram: 16 0 0 16 0 16 0 0 0 464

Total # of neighbors = 24454374
Ave neighs/atom = 70.4851
Neighbor list builds = 10541
Dangerous builds = 0



Total wall time: 1:38:13
