LAMMPS (16 Feb 2016)
# ------------------------ INITIALIZATION ----------------------------
echo both
#log		log.c
units           metal
dimension       3
boundary        p p p
atom_style      atomic
shell         mkdir  cfg
shell         mkdir  dump
variable      myT equal 50

# ----------------------- ATOM DEFINITION ----------------------------
lattice         fcc 4.024845358 #origin 0.0 0.0 0.0 orient x 1 -1 0 orient y 1 1 -2 orient z 1 1 1
Lattice spacing in x,y,z = 4.02485 4.02485 4.02485
variable        Lx equal 250
variable        Ly equal 2
variable        Lz equal 1000
variable        boxLZ equal 1010
region          SYSTEM block -${Lx} ${Lx} -${Ly} ${Ly} -${Lz} 0 units lattice
region          SYSTEM block -250 ${Lx} -${Ly} ${Ly} -${Lz} 0 units lattice
region          SYSTEM block -250 250 -${Ly} ${Ly} -${Lz} 0 units lattice
region          SYSTEM block -250 250 -2 ${Ly} -${Lz} 0 units lattice
region          SYSTEM block -250 250 -2 2 -${Lz} 0 units lattice
region          SYSTEM block -250 250 -2 2 -1000 0 units lattice
region          BOX block -${Lx} ${Lx} -${Ly} ${Ly} -${boxLZ} 5 units lattice
region          BOX block -250 ${Lx} -${Ly} ${Ly} -${boxLZ} 5 units lattice
region          BOX block -250 250 -${Ly} ${Ly} -${boxLZ} 5 units lattice
region          BOX block -250 250 -2 ${Ly} -${boxLZ} 5 units lattice
region          BOX block -250 250 -2 2 -${boxLZ} 5 units lattice
region          BOX block -250 250 -2 2 -1010 5 units lattice
create_box      1 BOX
Created orthogonal box = (-1006.21 -8.04969 -4065.09) to (1006.21 8.04969 20.1242)
  16 by 1 by 64 MPI processor grid
create_atoms    1 region SYSTEM
Created 8004000 atoms

# ------------------------ FORCE FIELDS ------------------------------
pair_style      eam/alloy
pair_coeff  	  * * Al_wkg_MSMSE_2009.set Al


# ------------------------- SETTINGS ---------------------------------
thermo          100
thermo_style    custom step pe pxx pyy pzz lx ly lz vol temp

minimize      0  1e-12 100 10000
WARNING: Resetting reneighboring criteria during minimization (../min.cpp:168)
Neighbor list info ...
  1 neighbor list requests
  update every 1 steps, delay 0 steps, check yes
  max neighbors/atom: 2000, page size: 100000
  master list distance cutoff = 8.365
  ghost atom cutoff = 8.365
  binsize = 4.1825 -> bins = 482 4 977
Memory usage per processor = 4.20548 Mbytes
Step PotEng Pxx Pyy Pzz Lx Ly Lz Volume Temp 
       0    -21174728   -58.045128   -58.045128   -12.737886    2012.4227    16.099381     4085.218  1.32356e+08            0 
     100    -21174732   -50.666729   -50.666729  -0.28123071    2012.4227    16.099381     4085.218  1.32356e+08            0 
Loop time of 16.5286 on 1024 procs for 100 steps with 8004000 atoms

99.9% CPU use with 1024 MPI tasks x no OpenMP threads

Minimization stats:
  Stopping criterion = max iterations
  Energy initial, next-to-last, final = 
        -21174728.3515     -21174731.5205     -21174731.5205
  Force two-norm initial, final = 4.28162 0.00267622
  Force max component initial, final = 0.0381155 1.37946e-05
  Final line search alpha, max atom move = 1 1.37946e-05
  Iterations, force evaluations = 100 200

MPI task timing breakdown:
Section |  min time  |  avg time  |  max time  |%varavg| %total
---------------------------------------------------------------
Pair    | 5.8982     | 9.7038     | 10.529     |  18.0 | 58.71
Neigh   | 0          | 0          | 0          |   0.0 |  0.00
Comm    | 0.26729    | 0.72027    | 4.6914     |  64.6 |  4.36
Output  | 0.031012   | 0.031105   | 0.035369   |   0.1 |  0.19
Modify  | 0          | 0          | 0          |   0.0 |  0.00
Other   |            | 6.073      |            |       | 36.75

Nlocal:    7816.41 ave 8064 max 2976 min
Histogram: 16 0 0 0 8 8 0 0 0 992
Nghost:    16003 ave 17056 max 6632 min
Histogram: 16 0 0 16 0 0 0 0 0 992
Neighs:    546734 ave 569611 max 208272 min
Histogram: 16 0 0 0 16 0 0 0 0 992

Total # of neighbors = 559856000
Ave neighs/atom = 69.947
Neighbor list builds = 0
Dangerous builds = 0

reset_timestep 0
timestep       0.002

# -------------------- Run MD NVT equilibration -------------------------
#dump          1 all custom 100 dump.atom id type x y z
dump          2 all cfg 100 cfg/*.cfg mass type xs ys zs
dump_modify   2 element Al


velocity       all create 300.0 4928459 mom yes rot yes dist gaussian

fix             1 all npt temp 300 300 0.1 iso 0.0 0.0 2
run      10000
Neighbor list info ...
  1 neighbor list requests
  update every 1 steps, delay 10 steps, check yes
  max neighbors/atom: 2000, page size: 100000
  master list distance cutoff = 8.365
  ghost atom cutoff = 8.365
  binsize = 4.1825 -> bins = 482 4 977
Memory usage per processor = 4.6381 Mbytes
Step PotEng Pxx Pyy Pzz Lx Ly Lz Volume Temp 
       0    -21174732    2455.6796    2453.5041    2503.5208    2012.4227    16.099381     4085.218  1.32356e+08          300 
     100    -21014950    4498.2914    4439.3498    4530.9355    2016.1912    16.129529    4092.8681 1.3310095e+08    157.04487 
     200    -20997924    2695.4057     2610.151    2720.1829    2018.5233    16.148186    4097.6023 1.3356335e+08    164.19303 
     300    -20981807    1599.8026     1514.277    1613.4541    2020.1585    16.161268    4100.9217 1.3388821e+08    179.20815 
     400    -20962062    1187.4399    1290.9237    1195.2646    2021.4125      16.1713    4103.4675 1.3413771e+08    196.39563 
     500    -20943716    965.44257    925.40844    967.57549    2022.5313     16.18025    4105.7385 1.3436055e+08    219.32414 
     600    -20919543    1053.7156    981.60262    1043.8015    2023.6211    16.188969    4107.9508 1.3457786e+08    239.24182 
     700    -20896361    1029.9791     961.2496     1024.302    2024.7187    16.197749    4110.1789 1.3479695e+08    260.34823 
     800    -20875134    904.22252    939.37218    890.02713    2025.8056    16.206445    4112.3853 1.3501416e+08     280.3722 
     900    -20855411    813.86828     818.2413    795.47753    2026.8015    16.214412    4114.4071 1.3521338e+08    294.25277 
    1000    -20845438    446.52658     418.2479    428.11732    2027.6014    16.220811    4116.0308 1.3537353e+08    302.97735 
    1100    -20847994   -84.940212   -116.06516     -109.363    2027.9323    16.223459    4116.7026 1.3543983e+08    300.45108 
    1200    -20851678   -37.734832   -61.849575   -68.156584    2027.7163     16.22173     4116.264 1.3539654e+08    297.76219 
    1300    -20847272    157.79642    121.96186     120.1201     2027.757    16.222056    4116.3467 1.354047e+08    300.96523 
    1400    -20847404   -60.644981   -83.871115   -86.791781    2027.9285    16.223428    4116.6949 1.3543907e+08    301.15918 
    1500    -20850576    -19.85734   -47.124844   -55.053557    2027.7416    16.221933    4116.3154 1.3540161e+08    298.37589 
    1600    -20848607    111.38544    82.384307    70.929748    2027.7223    16.221778    4116.2763 1.3539776e+08    300.06828 
    1700    -20847140   -14.157735   -25.200278   -36.334734    2027.8905    16.223124    4116.6176 1.3543144e+08    301.21374 
    1800    -20849646   -22.489796   -55.948616   -67.837809    2027.7858    16.222287    4116.4053 1.3541048e+08    299.02675 
    1900    -20849443    79.766451    57.591143    35.205936    2027.7068    16.221655    4116.2448 1.3539465e+08    299.51161 
    2000    -20847437    21.381216    1.1785412   -18.564512    2027.8489    16.222792    4116.5334 1.3542312e+08    301.08057 
    2100    -20848943   -27.966908   -51.490424   -70.502659     2027.823    16.222584    4116.4807 1.3541793e+08    299.78561 
    2200    -20849845    45.904874    27.475177    7.3180273    2027.7152    16.221722    4116.2619 1.3539633e+08    299.34002 
    2300    -20847912    42.854405    22.161605    1.3481547    2027.8081    16.222464    4116.4504 1.3541493e+08    300.62729 
    2400    -20848360   -17.653109   -52.104648   -63.617161    2027.8438    16.222751     4116.523 1.354221e+08    300.28352 
    2500    -20849757    25.238541    7.8130491   -17.820895    2027.7344    16.221875    4116.3009 1.3540018e+08    299.35866 
    2600    -20848576    42.853532    32.048679    2.8172974    2027.7706    16.222164    4116.3742 1.3540742e+08    300.29187 
    2700    -20847969   -7.4203158   -23.944432   -49.672735    2027.8404    16.222723    4116.5159 1.354214e+08    300.45944 
    2800    -20849350    20.647373   -5.8073182     -40.9028    2027.7594    16.222075    4116.3516 1.3540519e+08    299.49245 
    2900    -20848920    57.791451    32.187556    10.395028    2027.7437    16.221949    4116.3196 1.3540203e+08    299.80794 
    3000    -20848025    11.174928   -14.196337   -37.425368    2027.8243    16.222594    4116.4833 1.3541818e+08    300.52767 
    3100    -20849010    6.0836927   -16.977344   -42.785087    2027.7798    16.222239     4116.393 1.3540928e+08     299.8573 
    3200    -20849278    42.146946    24.503013   -2.5751679    2027.7338     16.22187    4116.2996 1.3540005e+08    299.67844 
    3300    -20848215    26.220549    8.6044439   -18.666102    2027.7985    16.222388    4116.4309 1.3541301e+08    300.37721 
    3400    -20848589   0.56509127   -24.801753   -45.495247    2027.8062     16.22245    4116.4466 1.3541456e+08    300.08538 
    3500    -20849368    28.677844    7.4276906   -11.315393    2027.7425     16.22194    4116.3172 1.354018e+08    299.71424 
    3600    -20848611    35.354162    7.3673168   -22.496152    2027.7766    16.222213    4116.3865 1.3540863e+08    300.27113 
    3700    -20848295    8.8951346   -12.882202   -40.824716    2027.8069    16.222455     4116.448 1.354147e+08    300.19273 
    3800    -20849098    28.313694    11.886799   -26.705792    2027.7538     16.22203    4116.3401 1.3540405e+08    299.63547 
    3900    -20848756    36.712608    21.349164   -6.3276768     2027.755     16.22204    4116.3427 1.354043e+08     299.8816 
    4000    -20848318     7.710732   -10.009648   -41.214513    2027.8041    16.222433    4116.4423 1.3541414e+08    300.36725 
    4100    -20848840    16.213575    1.2437096   -28.474834    2027.7687    16.222149    4116.3704 1.3540704e+08    299.76691 
    4200    -20849032    36.374621    23.806178    -12.08543    2027.7421    16.221937    4116.3165 1.3540172e+08    299.79269 
    4300    -20848509    19.576776   -5.8986256   -34.728869    2027.7887     16.22231    4116.4111 1.3541105e+08    300.38927 
    4400    -20848625    22.259744    -8.282473   -40.225033    2027.7821    16.222257    4116.3977 1.3540974e+08    299.98365 
    4500    -20849065    33.043002    17.700044   -20.219947    2027.7438    16.221951      4116.32 1.3540207e+08    299.73072 
    4600    -20848597    24.562669    5.2867685   -22.453468    2027.7742    16.222194    4116.3817 1.3540815e+08    300.16638 
    4700    -20848540    12.369415   -7.8754953   -42.316682    2027.7916    16.222333    4116.4169 1.3541163e+08     300.1922 
    4800    -20849009    32.180489    11.508057   -26.895473     2027.753    16.222024    4116.3386 1.3540391e+08    299.78769 
    4900    -20848842    24.084279    6.4037619   -28.714106    2027.7652    16.222122    4116.3634 1.3540635e+08     300.0766 
    5000    -20848450    19.531274   -1.7004236   -43.660621    2027.7898    16.222318    4116.4132 1.3541127e+08    300.22064 
    5100    -20848806    28.660538    6.9425066   -29.015857    2027.7634    16.222107    4116.3598 1.3540599e+08    299.82068 
    5200    -20848983    28.003158    10.069968   -22.916929    2027.7533    16.222027    4116.3393 1.3540397e+08    299.94591 
    5300    -20848514    25.646133    4.3580574   -35.759917    2027.7835    16.222268    4116.4006 1.3541002e+08     300.2042 
    5400    -20848697    17.036177   -3.5663938   -37.577341     2027.779    16.222232    4116.3914 1.3540911e+08     300.0483 
    5500    -20849028    30.070014    11.289662   -18.232691    2027.7482    16.221986    4116.3289 1.3540294e+08    299.85006 
    5600    -20848589    22.487566    1.7675351   -19.113412    2027.7747    16.222198    4116.3827 1.3540826e+08    300.05773 
    5700    -20848595    16.642763   -3.5057139   -35.071918    2027.7829    16.222263    4116.3993 1.354099e+08    300.15819 
    5800    -20848982    27.227077   -2.0958922    -31.13716    2027.7585    16.222068    4116.3497  1.35405e+08    299.88834 
    5900    -20848783    33.798095    7.8047068   -20.913585    2027.7592    16.222074    4116.3512 1.3540515e+08    299.97735 
    6000    -20848627    13.395953   -10.268687   -39.134601    2027.7832    16.222266    4116.3999 1.3540995e+08    300.27323 
    6100    -20848913    24.534916   -2.4013122   -27.079936    2027.7626    16.222101     4116.358 1.3540582e+08    300.00957 
    6200    -20848838    32.832013    10.864477   -26.423964    2027.7536    16.222029    4116.3398 1.3540402e+08    299.84372 
    6300    -20848494    24.025788    6.7268089   -25.987138    2027.7743    16.222195    4116.3819 1.3540818e+08    300.06088 
    6400    -20848650    21.926338    4.7154747   -35.689625    2027.7738     16.22219    4116.3807 1.3540806e+08    299.94991 
    6500    -20848914    25.662291    17.387535   -28.536652     2027.756    16.222048    4116.3446 1.3540449e+08    299.89327 
    6600    -20848643    23.059289    1.6183486   -32.677564    2027.7731    16.222185    4116.3793 1.3540792e+08    300.08498 
    6700    -20848672    22.770062 -0.054235322   -34.503597    2027.7743    16.222194    4116.3818 1.3540816e+08    300.10027 
    6800    -20849045    26.697855    1.0801752   -35.298378    2027.7587     16.22207    4116.3502 1.3540505e+08     300.0435 
    6900    -20848777    29.037669    7.3670047   -34.984321    2027.7649    16.222119    4116.3627 1.3540629e+08    300.04362 
    7000    -20848633    20.999632   -7.8078148   -32.397263    2027.7761    16.222209    4116.3854 1.3540853e+08    300.14091 
    7100    -20848860    24.710373   0.91893511   -31.853747    2027.7602    16.222082    4116.3532 1.3540535e+08    299.94656 
    7200    -20848694    38.354932    8.8895186   -27.719164     2027.758    16.222064    4116.3487 1.354049e+08    299.83128 
    7300    -20848584    26.884865   0.30556056   -35.424661     2027.772    16.222176    4116.3772 1.3540771e+08    300.12458 
    7400    -20848769     29.69768    4.1413524   -43.008374    2027.7614    16.222091    4116.3557 1.3540559e+08     299.9834 
    7500    -20848782    34.316857    16.661062   -25.275104    2027.7511    16.222009    4116.3347 1.3540352e+08    299.80706 
    7600    -20848774    19.308007   -1.1695933   -38.519762    2027.7688     16.22215    4116.3706 1.3540707e+08    300.21534 
    7700    -20848735    15.816288   -1.9317906   -36.716352    2027.7675     16.22214    4116.3679 1.354068e+08    300.10173 
    7800    -20849043    18.209057    8.9106122   -35.697565    2027.7511    16.222009    4116.3347 1.3540352e+08    300.07283 
    7900    -20848731    21.757977     11.56224   -29.161812    2027.7569    16.222055    4116.3465 1.3540468e+08    300.02909 
    8000    -20848679    21.142391   -3.0161327   -37.767513      2027.77     16.22216    4116.3731 1.3540731e+08    300.10575 
    8100    -20848757    27.474107    9.7674425   -29.693299    2027.7555    16.222044    4116.3436 1.354044e+08    299.89902 
    8200    -20848711    29.494001    11.562291   -22.637365    2027.7519    16.222015    4116.3363 1.3540368e+08     299.8691 
    8300    -20848680    26.390562    1.2375998   -34.791373    2027.7652    16.222122    4116.3633 1.3540635e+08    300.13167 
    8400    -20848747    26.548653    5.9493403   -44.404023    2027.7609    16.222087    4116.3546 1.3540549e+08    299.98405 
    8500    -20848801     27.77767    12.833012   -32.110794    2027.7526    16.222021    4116.3379 1.3540383e+08     299.9207 
    8600    -20848762    22.263024  -0.70153411    -43.85546    2027.7634    16.222107    4116.3598 1.3540599e+08    300.13384 
    8700    -20848781    26.090136   0.96233766   -41.047933     2027.759    16.222072    4116.3507 1.354051e+08    300.14047 
    8800    -20848785    26.242619    5.5809777   -37.046825    2027.7532    16.222026     4116.339 1.3540394e+08     299.8845 
    8900    -20848774    33.424084    11.223544   -25.709291    2027.7508    16.222007    4116.3342 1.3540347e+08    300.03986 
    9000    -20848617    21.599705  -0.61736921   -42.066891    2027.7662     16.22213    4116.3654 1.3540655e+08    300.01881 
    9100    -20848697    35.956841    14.044641   -22.214032    2027.7489    16.221991    4116.3302 1.3540308e+08    299.88288 
    9200    -20848774    25.863984    6.7793636   -36.399914    2027.7522    16.222017    4116.3369 1.3540373e+08    299.96525 
    9300    -20848668    33.722363     8.615113   -34.309039    2027.7544    16.222035    4116.3415 1.3540419e+08    300.03274 
    9400    -20848753    24.881456    4.1694937   -42.338492    2027.7566    16.222053    4116.3459 1.3540462e+08    300.01246 
    9500    -20848824    28.457546    10.646009   -34.230671    2027.7496    16.221997    4116.3317 1.3540323e+08     300.0145 
    9600    -20848711    30.301613      6.74052   -37.025159     2027.755     16.22204    4116.3426 1.354043e+08    300.02119 
    9700    -20848771    26.702868    4.2350111    -39.12867    2027.7535    16.222028    4116.3397 1.3540401e+08    300.07815 
    9800    -20848793    25.082333    9.1135542   -36.142084    2027.7499    16.221999    4116.3323 1.3540328e+08     299.9917 
    9900    -20848747    27.529209    8.1440526     -40.3124    2027.7524    16.222019    4116.3373 1.3540377e+08    300.04703 
   10000    -20848607    32.547691    8.9677417   -35.293985    2027.7536    16.222029    4116.3398 1.3540402e+08    299.92011 
Loop time of 907.675 on 1024 procs for 10000 steps with 8004000 atoms

Performance: 1.904 ns/day, 12.607 hours/ns, 11.017 timesteps/s
99.9% CPU use with 1024 MPI tasks x no OpenMP threads

MPI task timing breakdown:
Section |  min time  |  avg time  |  max time  |%varavg| %total
---------------------------------------------------------------
Pair    | 284.74     | 435.87     | 468.99     | 106.1 | 48.02
Neigh   | 3.4489     | 8.6235     | 9.1965     |  26.0 |  0.95
Comm    | 15.36      | 32.098     | 176.81     | 377.9 |  3.54
Output  | 154.08     | 154.2      | 154.21     |   0.0 | 16.99
Modify  | 245.74     | 270.28     | 287.4      |  44.1 | 29.78
Other   |            | 6.608      |            |       |  0.73

Nlocal:    7816.41 ave 8064 max 2991 min
Histogram: 16 0 0 0 2 14 0 0 0 992
Nghost:    15814.3 ave 16374 max 6821 min
Histogram: 16 0 0 13 3 0 0 0 3 989
Neighs:    551954 ave 573034 max 211484 min
Histogram: 16 0 0 0 16 0 0 0 0 992

Total # of neighbors = 565201031
Ave neighs/atom = 70.6148
Neighbor list builds = 271
Dangerous builds = 3
unfix 1

fix            2 all nvt temp 300.0 300.0 0.1

run      10000
Memory usage per processor = 4.63937 Mbytes
Step PotEng Pxx Pyy Pzz Lx Ly Lz Volume Temp 
   10000    -20848607    32.547691    8.9677417   -35.293985    2027.7536    16.222029    4116.3398 1.3540402e+08    299.92011 
   10100    -20848848    16.849342 -0.053815244    -44.55127    2027.7536    16.222029    4116.3398 1.3540402e+08    299.97495 
   10200    -20848948    15.215318   -4.2393378   -48.721271    2027.7536    16.222029    4116.3398 1.3540402e+08    300.07345 
   10300    -20848694    24.168996    6.7417653    -38.94628    2027.7536    16.222029    4116.3398 1.3540402e+08    300.00407 
   10400    -20848666    29.581076    4.7211883   -37.171102    2027.7536    16.222029    4116.3398 1.3540402e+08    299.94178 
   10500    -20848837      23.5538    7.3559572   -47.065759    2027.7536    16.222029    4116.3398 1.3540402e+08    299.93697 
   10600    -20848633    29.638263     14.04891   -37.121705    2027.7536    16.222029    4116.3398 1.3540402e+08    300.00955 
   10700    -20848750    27.443962    10.371035   -48.355596    2027.7536    16.222029    4116.3398 1.3540402e+08     300.0891 
   10800    -20848718     25.90641    6.7551364   -45.845606    2027.7536    16.222029    4116.3398 1.3540402e+08    299.92132 
   10900    -20848764    17.054922    3.3252533   -53.881179    2027.7536    16.222029    4116.3398 1.3540402e+08    300.06291 
   11000    -20848569    27.524082    12.021957   -45.638698    2027.7536    16.222029    4116.3398 1.3540402e+08    300.13327 
   11100    -20848708    19.741126    3.8715434   -50.960381    2027.7536    16.222029    4116.3398 1.3540402e+08    299.99793 
   11200    -20848679    19.977419    1.1880237   -51.609732    2027.7536    16.222029    4116.3398 1.3540402e+08    299.90036 
   11300    -20848722    23.951922    2.5749873   -58.293476    2027.7536    16.222029    4116.3398 1.3540402e+08    300.18892 
   11400    -20848685    21.818808    2.8080854   -55.443639    2027.7536    16.222029    4116.3398 1.3540402e+08    299.92157 
   11500    -20848783    16.906358   -7.0874272   -64.275696    2027.7536    16.222029    4116.3398 1.3540402e+08    300.02071 
   11600    -20848700    13.629761   -6.8485776   -58.365802    2027.7536    16.222029    4116.3398 1.3540402e+08    300.13074 
   11700    -20848835    12.082717   -13.680976   -69.900162    2027.7536    16.222029    4116.3398 1.3540402e+08    299.95186 
   11800    -20848668    16.994053   -5.2494441   -61.052301    2027.7536    16.222029    4116.3398 1.3540402e+08    299.95061 
   11900    -20848667    17.474918   -5.6480347   -67.198045    2027.7536    16.222029    4116.3398 1.3540402e+08     300.0339 
   12000    -20848702    18.007138   -12.013794   -72.467263    2027.7536    16.222029    4116.3398 1.3540402e+08    299.99527 
   12100    -20848844    2.8775232   -23.268127   -72.085869    2027.7536    16.222029    4116.3398 1.3540402e+08    300.15972 
   12200    -20848712    7.6111646    -12.54721   -66.327198    2027.7536    16.222029    4116.3398 1.3540402e+08    300.01242 
   12300    -20848711    11.663847   -14.059818   -83.255452    2027.7536    16.222029    4116.3398 1.3540402e+08    299.94538 
   12400    -20848576    15.592449    -11.26588   -71.242592    2027.7536    16.222029    4116.3398 1.3540402e+08    300.01671 
   12500    -20848742     6.313991   -20.826348   -82.355271    2027.7536    16.222029    4116.3398 1.3540402e+08     300.0505 
   12600    -20848748    3.3630836   -19.585762   -86.163212    2027.7536    16.222029    4116.3398 1.3540402e+08    299.94695 
   12700    -20848628    9.9032393    -16.62157   -86.037891    2027.7536    16.222029    4116.3398 1.3540402e+08    300.02112 
   12800    -20848784    1.6982294   -28.194668   -91.934412    2027.7536    16.222029    4116.3398 1.3540402e+08    300.12642 
   12900    -20848557    10.924697   -15.235572   -78.727246    2027.7536    16.222029    4116.3398 1.3540402e+08    299.85782 
   13000    -20848636    8.0674193   -16.884538   -87.233641    2027.7536    16.222029    4116.3398 1.3540402e+08    299.97225 
   13100    -20848649    1.7533943   -14.042705   -86.454637    2027.7536    16.222029    4116.3398 1.3540402e+08    300.12392 
   13200    -20848631   0.36475128   -17.922325   -89.034096    2027.7536    16.222029    4116.3398 1.3540402e+08    299.89405 
   13300    -20848724   -1.6578326    -28.14239   -90.389315    2027.7536    16.222029    4116.3398 1.3540402e+08    299.97334 
   13400    -20848602    3.4717278   -18.651706   -89.352298    2027.7536    16.222029    4116.3398 1.3540402e+08    300.09808 
   13500    -20848738   -5.0635993   -25.594304   -101.58122    2027.7536    16.222029    4116.3398 1.3540402e+08    300.04279 
   13600    -20848753   -10.436022   -29.713849   -90.523536    2027.7536    16.222029    4116.3398 1.3540402e+08    299.99093 
   13700    -20848542    2.3889044   -15.358927   -92.309568    2027.7536    16.222029    4116.3398 1.3540402e+08    300.05848 
   13800    -20848682  -0.99186541   -23.334862   -106.83201    2027.7536    16.222029    4116.3398 1.3540402e+08    299.95223 
   13900    -20848743   -10.194747   -28.244663   -110.71195    2027.7536    16.222029    4116.3398 1.3540402e+08    300.05923 
   14000    -20848618   -4.9615176   -29.166223   -97.664173    2027.7536    16.222029    4116.3398 1.3540402e+08     300.0031 
   14100    -20848724   -11.680322     -30.5536    -104.4545    2027.7536    16.222029    4116.3398 1.3540402e+08    300.07523 
   14200    -20848723   -12.782289   -31.316562   -104.81141    2027.7536    16.222029    4116.3398 1.3540402e+08    299.97213 
   14300    -20848718   -6.7833464   -27.766382   -102.70403    2027.7536    16.222029    4116.3398 1.3540402e+08    300.13392 
   14400    -20848692   -7.9887641   -28.507212    -103.3547    2027.7536    16.222029    4116.3398 1.3540402e+08    300.12894 
   14500    -20848633   -4.8728233   -26.335572   -100.69631    2027.7536    16.222029    4116.3398 1.3540402e+08    299.84907 
   14600    -20848573   -2.8236506   -28.217056   -103.66016    2027.7536    16.222029    4116.3398 1.3540402e+08    299.94696 
   14700    -20848509  -0.12092934   -21.295075   -103.06604    2027.7536    16.222029    4116.3398 1.3540402e+08    299.96933 
   14800    -20848663   -8.4121058    -26.67659   -113.12826    2027.7536    16.222029    4116.3398 1.3540402e+08    299.89807 
   14900    -20848549   -7.0961299   -29.693331   -105.12776    2027.7536    16.222029    4116.3398 1.3540402e+08    299.96143 
   15000    -20848561     -4.82268   -31.950789   -106.97667    2027.7536    16.222029    4116.3398 1.3540402e+08    300.06452 
   15100    -20848881   -20.462885   -47.781441   -125.68488    2027.7536    16.222029    4116.3398 1.3540402e+08      300.035 
   15200    -20848649   -12.639271   -33.684412   -112.07663    2027.7536    16.222029    4116.3398 1.3540402e+08    300.07821 
   15300    -20848594   -9.9964251   -28.903971   -120.07095    2027.7536    16.222029    4116.3398 1.3540402e+08    300.02839 
   15400    -20848764   -21.317638    -44.76382   -128.20137    2027.7536    16.222029    4116.3398 1.3540402e+08    299.92863 
   15500    -20848735   -21.436101    -41.73317   -124.63766    2027.7536    16.222029    4116.3398 1.3540402e+08    300.12897 
   15600    -20848661   -20.011249   -37.724586   -123.11133    2027.7536    16.222029    4116.3398 1.3540402e+08     300.0594 
   15700    -20848752   -20.798593   -43.486792   -130.83496    2027.7536    16.222029    4116.3398 1.3540402e+08    299.88671 
   15800    -20848710   -26.024896   -42.824202   -128.01623    2027.7536    16.222029    4116.3398 1.3540402e+08    300.08264 
   15900    -20848465   -12.327775    -36.65744    -124.1315    2027.7536    16.222029    4116.3398 1.3540402e+08    299.87904 
   16000    -20848598   -26.229205   -43.825431   -126.34796    2027.7536    16.222029    4116.3398 1.3540402e+08    299.82927 
   16100    -20848729   -21.927393   -45.211107    -138.6916    2027.7536    16.222029    4116.3398 1.3540402e+08    300.02809 
   16200    -20848525   -14.057389   -39.387152   -124.17184    2027.7536    16.222029    4116.3398 1.3540402e+08    300.02347 
   16300    -20848592   -23.874395   -47.615606   -134.74994    2027.7536    16.222029    4116.3398 1.3540402e+08    299.87934 
   16400    -20848618   -28.717854   -51.942601   -132.17421    2027.7536    16.222029    4116.3398 1.3540402e+08    300.02108 
   16500    -20848518    -19.92385   -45.275121   -124.79962    2027.7536    16.222029    4116.3398 1.3540402e+08    300.05235 
   16600    -20848585   -25.904277   -49.445603   -134.57694    2027.7536    16.222029    4116.3398 1.3540402e+08    299.88944 
   16700    -20848634   -25.858109   -50.504294    -139.7534    2027.7536    16.222029    4116.3398 1.3540402e+08    300.10299 
   16800    -20848491   -29.174296   -49.174193   -133.46835    2027.7536    16.222029    4116.3398 1.3540402e+08    300.03489 
   16900    -20848599   -30.739823   -46.354889   -142.25321    2027.7536    16.222029    4116.3398 1.3540402e+08    299.92732 
   17000    -20848544   -22.732317   -48.510742   -147.90541    2027.7536    16.222029    4116.3398 1.3540402e+08    299.95542 
   17100    -20848592    -27.81983    -49.71739   -142.52581    2027.7536    16.222029    4116.3398 1.3540402e+08     300.0214 
   17200    -20848712   -34.735335   -48.062894   -152.89034    2027.7536    16.222029    4116.3398 1.3540402e+08    300.10929 
   17300    -20848552   -28.024062   -46.146535   -153.38338    2027.7536    16.222029    4116.3398 1.3540402e+08     299.9553 
   17400    -20848479   -27.165763    -46.43549   -143.91822    2027.7536    16.222029    4116.3398 1.3540402e+08    299.99544 
   17500    -20848541   -30.907267   -49.948963   -145.99934    2027.7536    16.222029    4116.3398 1.3540402e+08    300.00439 
   17600    -20848635    -33.07255   -59.642286   -149.86173    2027.7536    16.222029    4116.3398 1.3540402e+08    299.90651 
   17700    -20848410   -25.498268   -41.268966    -150.7399    2027.7536    16.222029    4116.3398 1.3540402e+08    299.99699 
   17800    -20848611   -34.549719   -52.802168   -153.66138    2027.7536    16.222029    4116.3398 1.3540402e+08    300.07372 
   17900    -20848667   -40.189238   -51.144585   -158.95332    2027.7536    16.222029    4116.3398 1.3540402e+08    299.98681 
   18000    -20848530   -32.373424   -51.348847   -142.96757    2027.7536    16.222029    4116.3398 1.3540402e+08    300.20406 
   18100    -20848629   -41.903502    -51.93092    -155.2915    2027.7536    16.222029    4116.3398 1.3540402e+08     300.0765 
   18200    -20848678   -36.443184   -59.422069   -156.63927    2027.7536    16.222029    4116.3398 1.3540402e+08    300.04413 
   18300    -20848540   -28.236542   -49.589743   -151.03491    2027.7536    16.222029    4116.3398 1.3540402e+08    300.23711 
   18400    -20848424   -33.054625   -42.566719   -156.88112    2027.7536    16.222029    4116.3398 1.3540402e+08    299.87968 
   18500    -20848694   -37.985057   -65.314667   -165.52944    2027.7536    16.222029    4116.3398 1.3540402e+08    300.08609 
   18600    -20848458   -31.287776   -53.638501   -155.89141    2027.7536    16.222029    4116.3398 1.3540402e+08     300.0796 
   18700    -20848558   -37.013566   -51.507837   -165.65904    2027.7536    16.222029    4116.3398 1.3540402e+08    300.01873 
   18800    -20848587   -44.321574   -53.505705   -170.46912    2027.7536    16.222029    4116.3398 1.3540402e+08     299.9621 
   18900    -20848345    -30.33454   -52.248926   -156.40094    2027.7536    16.222029    4116.3398 1.3540402e+08    299.92713 
   19000    -20848564   -36.135004   -57.353024   -176.49359    2027.7536    16.222029    4116.3398 1.3540402e+08    300.11296 
   19100    -20848657   -49.535144   -67.839798   -177.67994    2027.7536    16.222029    4116.3398 1.3540402e+08    299.99258 
   19200    -20848448   -40.206535   -60.394301   -159.46655    2027.7536    16.222029    4116.3398 1.3540402e+08    300.06705 
   19300    -20848572   -46.582175   -63.536262   -170.51756    2027.7536    16.222029    4116.3398 1.3540402e+08     300.1133 
   19400    -20848582    -47.61526   -60.038703   -176.82152    2027.7536    16.222029    4116.3398 1.3540402e+08    300.03101 
   19500    -20848468   -42.325034   -62.147383   -169.65882    2027.7536    16.222029    4116.3398 1.3540402e+08     299.9374 
   19600    -20848464   -39.823967   -59.342722   -176.73245    2027.7536    16.222029    4116.3398 1.3540402e+08    300.03754 
   19700    -20848669   -51.752925   -76.215287   -184.86805    2027.7536    16.222029    4116.3398 1.3540402e+08    299.98905 
   19800    -20848526   -43.698169   -65.420019   -178.29252    2027.7536    16.222029    4116.3398 1.3540402e+08    300.02042 
   19900    -20848356   -41.735403   -60.696483    -164.7082    2027.7536    16.222029    4116.3398 1.3540402e+08     299.9135 
   20000    -20848531   -46.931819   -68.275275   -184.75182    2027.7536    16.222029    4116.3398 1.3540402e+08    299.88624 
Loop time of 899.475 on 1024 procs for 10000 steps with 8004000 atoms

Performance: 1.921 ns/day, 12.493 hours/ns, 11.118 timesteps/s
99.9% CPU use with 1024 MPI tasks x no OpenMP threads

MPI task timing breakdown:
Section |  min time  |  avg time  |  max time  |%varavg| %total
---------------------------------------------------------------
Pair    | 282.34     | 430.71     | 458.96     | 102.6 | 47.88
Neigh   | 2.6642     | 6.6131     | 7.2858     |  22.3 |  0.74
Comm    | 16.659     | 33.163     | 173.46     | 347.2 |  3.69
Output  | 165.26     | 165.36     | 165.37     |   0.0 | 18.38
Modify  | 201.66     | 221.71     | 239.86     |  48.4 | 24.65
Other   |            | 41.92      |            |       |  4.66

Nlocal:    7816.41 ave 8064 max 3196 min
Histogram: 16 0 0 0 0 16 0 0 0 992
Nghost:    15804.8 ave 16341 max 6639 min
Histogram: 16 0 0 13 3 0 0 0 2 990
Neighs:    551919 ave 573113 max 223639 min
Histogram: 16 0 0 0 16 0 0 0 0 992

Total # of neighbors = 565164570
Ave neighs/atom = 70.6103
Neighbor list builds = 209
Dangerous builds = 0
reset_timestep 0
unfix 2

##---------------------------laser
#---------------------- DEFINE Laser GERION and GROUP ----------------
region       R1  block -75  75  INF  INF  INF  5  units box
group        G1 region R1
589406 atoms in group G1
group        G2 subtract all G1
7414594 atoms in group G2


#define     temperature/pressure calculation  group
variable    x1atom atom "x>=0  &&  x<4 &&  z>-40 && z<1"     ##NEW!!!!!!!!!!!!
variable    x2atom atom "x>=-2012.4  &&  x<-2008.4 &&  z>-40 && z<1"
variable    x3atom atom "x>=0  &&  x<4 &&  z>-20 && z<1"
variable    x4atom atom "x>=-2012.4  &&  x<-2008.4 &&  z>-20 && z<1"
variable    x5atom atom "x>=196  &&  x<200 &&  z>-40 && z<1"

group       x1atom variable x1atom
151 atoms in group x1atom
group       x2atom variable x2atom
0 atoms in group x2atom
group       x3atom variable x3atom
72 atoms in group x3atom
group       x4atom variable x4atom
0 atoms in group x4atom
group       x5atom variable x5atom
160 atoms in group x5atom


compute      COM1x x1atom com
compute      COM2x x2atom com
compute      COM3x x3atom com
compute      COM4x x4atom com
compute      COM5x x5atom com

compute      COMall all com

#Temperature profile
#variable      Tprofile atom 300*(1+(step/5000)*2.5*exp(z/40))
variable      Tprofile atom 300*(1+(step/5000)*2.5*exp(z/75))

# ------------------------- SETTINGS ---------------------------------
thermo          100
thermo_style    custom step lx pxx pyy pzz temp c_COM1x[1] c_COM1x[2] c_COM1x[3] c_COM2x[1] c_COM2x[2] c_COM2x[3] c_COM3x[1] c_COM3x[2] c_COM3x[3] c_COM4x[1] c_COM4x[2] c_COM4x[3]  c_COM5x[1] c_COM5x[2] c_COM5x[3] c_COMall[1] c_COMall[2] c_COMall[3]

timestep       0.002


compute dispall all displace/atom

# ---------------- Run Laser Material Interaction --------------------
#dump          1 all custom 1000 dump/z1dump.atom id type x y z c_dispall[1]  c_dispall[2]  c_dispall[3] c_dispall[4]
#dump          2 all cfg 100 cfg/*.cfg mass type xs ys zs
#dump_modify   2 element Al

#relax for 2 PS
#fix           1 all nvt temp 300.0 300.0 0.1
#run  1000
#unfix         1

fix           1  all nve
fix           3temp  G1  langevin  v_Tprofile  0  0.1  378411   #TEST ALL
run           5000
Memory usage per processor = 5.13937 Mbytes
Step Lx Pxx Pyy Pzz Temp COM1x[1] COM1x[2] COM1x[3] COM2x[1] COM2x[2] COM2x[3] COM3x[1] COM3x[2] COM3x[3] COM4x[1] COM4x[2] COM4x[3] COM5x[1] COM5x[2] COM5x[3] COMall[1 COMall[2 COMall[3 
       0    2027.7536   -46.931819   -68.275275   -184.75182    299.88624    1.5373818  -0.70346197   -19.705924            0            0            0    1.5787926  -0.74329091   -9.2530127            0            0            0    197.65059  -0.75790614   -19.287146   -1.0138768   -1.0138768    -2012.346 
     100    2027.7536   -56.724784   -73.051627   -184.43302    299.84074    1.5124605  -0.69229804   -19.707098            0            0            0    1.5683697  -0.76043086   -9.2417731            0            0            0    197.58154  -0.75945967   -19.235702   -1.0139712   -1.0138603    -2012.346 
     200    2027.7536   -39.603294   -70.212809   -179.03002    299.85311    1.4875827  -0.68667872   -19.725299            0            0            0    1.5757486  -0.77855263   -9.2774763            0            0            0    197.58152  -0.73891954   -19.175592   -1.0140796   -1.0138707    -2012.346 
     300    2027.7536   -45.295077   -72.357067   -189.81457    299.94702    1.4837185  -0.68866201   -19.765563            0            0            0    1.5183636  -0.75495921   -9.3558854            0            0            0    197.61561  -0.76091684   -19.162046   -1.0141152    -1.013849    -2012.346 
     400    2027.7536   -41.658827   -65.547393   -187.69386    299.93734    1.5245706  -0.72150797   -19.756089            0            0            0     1.573219  -0.77090326   -9.3045346            0            0            0    197.62174  -0.72456639   -19.180524   -1.0142022   -1.0138354   -2012.3461 
     500    2027.7536   -49.976023   -63.710364    -189.3143    300.09052    1.5309587  -0.73258453   -19.728664            0            0            0    1.5767539  -0.80664531   -9.2271414            0            0            0     197.6833  -0.77866448    -19.25597   -1.0142615   -1.0137977    -2012.346 
     600    2027.7536   -45.967732   -65.047147   -178.01048    299.93848    1.5177701   -0.6970426   -19.705187            0            0            0     1.552698  -0.76116035   -9.2133398            0            0            0    197.67973  -0.76128185   -19.303236   -1.0143476   -1.0137109    -2012.346 
     700    2027.7536   -50.699326   -68.734249   -188.18359     300.0902    1.5161962   -0.7256669   -19.722367            0            0            0    1.5489818  -0.80509862   -9.2320465            0            0            0    197.73054  -0.76581945   -19.267276   -1.0145082   -1.0137125    -2012.346 
     800    2027.7536   -44.839667    -63.71274    -178.8121     300.0794    1.5304862  -0.73804417   -19.709982            0            0            0    1.5585684  -0.76999918   -9.2075794            0            0            0    197.70746  -0.74232832   -19.260215   -1.0146014   -1.0136966    -2012.346 
     900    2027.7536   -49.297116   -70.384641   -180.00215    300.20077    1.5247028  -0.78187838   -19.737288            0            0            0    1.5784674  -0.79105892   -9.2243177            0            0            0    197.71966  -0.70129623   -19.226513   -1.0147654   -1.0137429    -2012.346 
    1000    2027.7536    -37.49734   -61.913875   -166.39963    300.07963    1.5141233   -0.7640403   -19.754352            0            0            0    1.5615765   -0.8080223    -9.271583            0            0            0     197.7296  -0.72871709    -19.16685   -1.0150133   -1.0138164    -2012.346 
    1100    2027.7536   -39.839492   -59.404492   -173.29734    300.12728    1.4913146  -0.77401679   -19.726342            0            0            0    1.5339196  -0.81888832   -9.2247634            0            0            0    197.74566  -0.73792868   -19.270353   -1.0152341   -1.0138821   -2012.3459 
    1200    2027.7536   -36.710724   -63.465082   -176.35095    300.19539    1.5125615  -0.78759581   -19.677932            0            0            0    1.5429425  -0.82092805   -9.1519185            0            0            0    197.74843  -0.75369512   -19.263911   -1.0154924   -1.0139285   -2012.3459 
    1300    2027.7536   -30.769072    -56.39119   -176.25176    300.08713    1.5677543  -0.73072275   -19.693644            0            0            0    1.5954981  -0.75697076   -9.1756133            0            0            0    197.77259   -0.7351102   -19.258623   -1.0156858   -1.0139558   -2012.3458 
    1400    2027.7536   -41.533595   -58.734729   -183.88366    300.29162     1.555844  -0.73973757   -19.684776            0            0            0    1.6123028  -0.85894665   -9.1450066            0            0            0     197.7621  -0.75848093   -19.213018   -1.0158204   -1.0140164   -2012.3459 
    1500    2027.7536   -37.754236   -70.586671   -178.55771    300.29892    1.5684942  -0.75906402   -19.670702            0            0            0    1.6084337  -0.79531991   -9.1418108            0            0            0    197.83539  -0.81938862   -19.184783   -1.0160309   -1.0141021   -2012.3458 
    1600    2027.7536   -46.948333   -61.870388   -187.23253    300.31669    1.5533537   -0.7526948   -19.680708            0            0            0    1.6183841  -0.75107122   -9.1923576            0            0            0    197.85182  -0.87322242   -19.183676   -1.0162213   -1.0141692   -2012.3459 
    1700    2027.7536   -48.621632   -67.156238   -189.11987     300.4174    1.5245383  -0.78196622   -19.653983            0            0            0    1.5780655  -0.77669305   -9.1496485            0            0            0    197.85944  -0.84305966    -19.16843   -1.0164005   -1.0142938   -2012.3458 
    1800    2027.7536   -40.693034   -67.043474   -184.41665    300.35845    1.4998483  -0.77962245   -19.660956            0            0            0     1.554883  -0.82027877   -9.1630919            0            0            0    197.86849  -0.84868423   -19.156919   -1.0166076   -1.0144055   -2012.3459 
    1900    2027.7536   -42.230895   -61.786645   -182.12247     300.2707    1.5140613  -0.71921216   -19.694492            0            0            0    1.5836875   -0.7566966   -9.1348343            0            0            0    197.89837  -0.90780515   -19.199097   -1.0168031   -1.0145067   -2012.3459 
    2000    2027.7536    -48.85069   -64.391844   -192.18359    300.57222    1.5404994  -0.77391383     -19.6147            0            0            0    1.6080967  -0.83341781   -9.0753028            0            0            0    197.91487  -0.91005872   -19.255026   -1.0170981   -1.0146012   -2012.3459 
    2100    2027.7536   -44.874312   -63.152854    -190.3333    300.44116    1.5384354  -0.80053289   -19.562696            0            0            0    1.5940595  -0.88053976   -9.0030771            0            0            0    197.88335  -0.88691514   -19.313119   -1.0173738   -1.0147053   -2012.3459 
    2200    2027.7536   -43.055752   -60.345902   -189.55307    300.47783    1.5597947  -0.76830962   -19.578959            0            0            0     1.553082  -0.85316183   -9.0726859            0            0            0    197.86188  -0.91927067   -19.314876    -1.017658   -1.0147885   -2012.3459 
    2300    2027.7536   -39.382874   -53.414174   -190.87469     300.4765    1.4910035  -0.80165011   -19.541229            0            0            0     1.472815  -0.89259525    -8.957384            0            0            0    197.88328  -0.95995121   -19.328994   -1.0179511   -1.0150158   -2012.3459 
    2400    2027.7536   -38.752259   -58.433027   -196.31114    300.41233    1.4835891  -0.76769516   -19.512479            0            0            0    1.5206348  -0.82894914   -8.8977042            0            0            0    197.90386  -0.89681495   -19.290912   -1.0181394   -1.0151955    -2012.346 
    2500    2027.7536   -42.758137    -66.16538   -199.45246    300.61238     1.524594   -0.7493783   -19.535198            0            0            0    1.5595541  -0.78004381   -8.9402353            0            0            0    197.97941   -0.8347501   -19.297779   -1.0182911   -1.0152992    -2012.346 
    2600    2027.7536   -46.890249   -70.538934   -207.72832    300.68232     1.462847   -0.7681965   -19.538798            0            0            0    1.4724085   -0.7976722   -8.8747738            0            0            0    197.96696  -0.84058246   -19.328642   -1.0184443   -1.0154403    -2012.346 
    2700    2027.7536   -50.587744   -61.096071   -206.76289    300.70272    1.4734093  -0.68251434   -19.571557            0            0            0    1.4757093  -0.67032641   -8.9030705            0            0            0    197.98275   -0.8649595   -19.365268   -1.0185697   -1.0155968    -2012.346 
    2800    2027.7536    -38.52136   -59.855163   -200.91057    300.67559    1.4901795  -0.74804543   -19.570172            0            0            0    1.5392834  -0.75807266    -8.939507            0            0            0    198.00679  -0.81015643   -19.362168   -1.0187034   -1.0158437   -2012.3461 
    2900    2027.7536   -40.870997   -58.738359   -195.79515    300.61132    1.4942424  -0.79418119   -19.521651            0            0            0    1.5411009  -0.85034672   -8.8822606            0            0            0    198.08285  -0.81887333   -19.346542   -1.0188861   -1.0160815   -2012.3462 
    3000    2027.7536   -41.740526   -59.200326    -203.6492    300.71093    1.5743119  -0.74585557   -19.481499            0            0            0      1.59979  -0.77980995   -8.8379964            0            0            0     198.1094  -0.88075227   -19.341017   -1.0190413   -1.0163499   -2012.3462 
    3100    2027.7536   -41.859898   -53.597964   -201.57294     300.6996    1.5259238  -0.79043135   -19.571541            0            0            0    1.5899307  -0.85584827   -8.9590366            0            0            0    198.10809  -0.91211582   -19.357039   -1.0192381   -1.0165844   -2012.3463 
    3200    2027.7536   -45.779147   -58.184408   -211.55947    300.80062    1.5181845  -0.78936489   -19.586875            0            0            0    1.5756277  -0.82526733    -8.999458            0            0            0    198.16037  -0.97122198   -19.360574    -1.019361    -1.016816   -2012.3464 
    3300    2027.7536   -43.834934   -59.843558   -215.08638     300.8778    1.5278195  -0.73975854   -19.538344            0            0            0    1.6193938  -0.68822367   -8.9426261            0            0            0    198.15509  -0.95080593   -19.370645   -1.0194632   -1.0170596   -2012.3465 
    3400    2027.7536   -35.067554   -57.093217   -212.40217    300.73665     1.491131  -0.77242263   -19.529866            0            0            0    1.5019564  -0.74320477   -8.9495668            0            0            0    198.18439   -0.9397899   -19.328111   -1.0194754   -1.0173619   -2012.3466 
    3500    2027.7536   -40.472531    -65.65267   -214.60537    300.90246    1.4962462  -0.83257022   -19.458455            0            0            0      1.52867  -0.82501838   -8.8897844            0            0            0    198.13498  -0.92405145   -19.354831   -1.0194895   -1.0177261   -2012.3467 
    3600    2027.7536   -31.863021   -57.432525   -208.63109    300.80075    1.5362092  -0.84246771   -19.409256            0            0            0    1.5907297  -0.86728546   -8.8125727            0            0            0    198.18441  -0.97115113   -19.290839   -1.0194757   -1.0179866   -2012.3469 
    3700    2027.7536   -42.084173    -60.60024   -219.39666    300.94669     1.544648  -0.86372601    -19.41815            0            0            0    1.5415659  -0.88782774   -8.8171841            0            0            0    198.23519   -0.9469446    -19.30562   -1.0195583   -1.0182666   -2012.3469 
    3800    2027.7536   -34.759218   -61.318556   -210.95091    300.92801    1.5168449  -0.83094226   -19.365756            0            0            0     1.537339  -0.80933048    -8.681537            0            0            0    198.23278  -0.91628346   -19.287239   -1.0196164   -1.0185555   -2012.3469 
    3900    2027.7536   -34.442866   -53.806282   -210.39679    300.91164    1.5320458  -0.84908829   -19.374265            0            0            0    1.5652342  -0.85821301   -8.6961201            0            0            0    198.25293  -0.93303247   -19.278844   -1.0195615   -1.0189764   -2012.3469 
    4000    2027.7536   -36.484308   -65.270848   -206.28852    301.07514    1.5324582  -0.71788722   -19.379791            0            0            0    1.5958962  -0.78173956   -8.7519158            0            0            0    198.24934  -0.94559808   -19.215558   -1.0196381   -1.0193671   -2012.3469 
    4100    2027.7536   -32.771067   -53.896526   -216.06152    301.06545    1.4874454  -0.75361667   -19.389776            0            0            0     1.536655  -0.77566001   -8.7565976            0            0            0    198.27382  -0.97784255   -19.180715   -1.0197062   -1.0197445    -2012.347 
    4200    2027.7536   -34.170186   -53.287719   -216.18017    301.10191    1.4795002  -0.83313607   -19.329646            0            0            0     1.482717  -0.88327853   -8.6967321            0            0            0    198.29605  -0.98612326   -19.188755   -1.0197374   -1.0201587   -2012.3471 
    4300    2027.7536   -30.750195   -55.476846   -222.69795    301.11952    1.4887601  -0.70320407   -19.342885            0            0            0     1.447405  -0.73243966   -8.6290321            0            0            0    198.30403  -0.97809487   -19.174661   -1.0197496   -1.0206098   -2012.3473 
    4400    2027.7536   -28.894775   -54.678783   -216.34426    301.15074    1.4814531  -0.75726212   -19.314987            0            0            0     1.484681  -0.70881701   -8.6209273            0            0            0    198.26981  -0.94396143   -19.204683   -1.0197417    -1.021046   -2012.3473 
    4500    2027.7536   -26.247244    -59.75884   -217.15919    301.08304    1.4784096  -0.79386951   -19.346603            0            0            0    1.4800706  -0.75531011   -8.7028822            0            0            0    198.25466  -0.96230962   -19.191376   -1.0196926   -1.0215384   -2012.3473 
    4600    2027.7536   -23.790413   -58.617746   -228.70155    301.18696    1.4879591   -0.8522981   -19.321279            0            0            0    1.5194221  -0.81125323   -8.6288056            0            0            0    198.29741  -0.94845817   -19.206364   -1.0196683   -1.0220783   -2012.3474 
    4700    2027.7536   -32.203038   -53.353657   -220.22065    301.30594     1.510921  -0.89626901   -19.271338            0            0            0    1.5879334  -0.89041771   -8.5350959            0            0            0    198.33638  -0.96410847   -19.228275   -1.0196604    -1.022601   -2012.3476 
    4800    2027.7536   -35.534484   -57.301836    -222.3882    301.36189    1.5815895  -0.88593526   -19.223102            0            0            0    1.6361701  -0.82806887   -8.5423824            0            0            0      198.323  -0.99075028   -19.270607   -1.0196078   -1.0231457   -2012.3477 
    4900    2027.7536   -37.012031   -60.141284    -220.4601    301.37194    1.5312093  -0.89010463   -19.216903            0            0            0    1.6138861   -0.8813306    -8.458076            0            0            0    198.35047  -0.99036801     -19.2764   -1.0196307   -1.0237472   -2012.3478 
    5000    2027.7536   -33.599744   -56.324277   -223.48569    301.37719    1.5452717   -0.7953233   -19.252629            0            0            0    1.6454954  -0.80737191   -8.4270186            0            0            0    198.36457  -0.99477372   -19.295186   -1.0196039   -1.0243149   -2012.3479 
Loop time of 432.326 on 1024 procs for 5000 steps with 8004000 atoms

Performance: 1.998 ns/day, 12.009 hours/ns, 11.565 timesteps/s
99.9% CPU use with 1024 MPI tasks x no OpenMP threads

MPI task timing breakdown:
Section |  min time  |  avg time  |  max time  |%varavg| %total
---------------------------------------------------------------
Pair    | 150.7      | 224.97     | 238.04     |  71.6 | 52.04
Neigh   | 1.658      | 4.2786     | 4.6794     |  18.3 |  0.99
Comm    | 16.96      | 25.565     | 92.835     | 193.8 |  5.91
Output  | 86.025     | 86.257     | 86.537     |   1.2 | 19.95
Modify  | 1.0189     | 3.1172     | 7.4054     |  83.0 |  0.72
Other   |            | 88.14      |            |       | 20.39

Nlocal:    7816.41 ave 8064 max 3217 min
Histogram: 16 0 0 0 0 16 0 0 0 992
Nghost:    15827.2 ave 16319 max 6505 min
Histogram: 16 0 0 8 8 0 0 0 0 992
Neighs:    551916 ave 573118 max 224798 min
Histogram: 16 0 0 0 16 0 0 0 0 992

Total # of neighbors = 565161794
Ave neighs/atom = 70.6099
Neighbor list builds = 135
Dangerous builds = 0


variable  com1_x equal "c_COM1x[1]"
variable  com1_y equal "c_COM1x[2]"
variable  com1_z equal "c_COM1x[3]"
variable  com2_x equal "c_COM2x[1]"
variable  com2_y equal "c_COM2x[2]"
variable  com2_z equal "c_COM2x[3]"
variable  com3_x equal "c_COM3x[1]"
variable  com3_y equal "c_COM3x[2]"
variable  com3_z equal "c_COM3x[3]"
variable  com4_x equal "c_COM4x[1]"
variable  com4_y equal "c_COM4x[2]"
variable  com4_z equal "c_COM4x[3]"
variable  com5_x equal "c_COM5x[1]"
variable  com5_y equal "c_COM5x[2]"
variable  com5_z equal "c_COM5x[3]"
variable  comall_x equal "c_COMall[1]"
variable  comall_y equal "c_COMall[2]"
variable  comall_z equal "c_COMall[3]"


fix          2 all print 100 "${com1_x}   ${com1_y}   ${com1_z}  ${com2_x}   ${com2_y}   ${com2_z} ${com3_x}   ${com3_y}   ${com3_z} ${com4_x}   ${com4_y}   ${com4_z} ${com5_x}   ${com5_y}   ${com5_z} ${comall_x}   ${comall_y}   ${comall_z}" file COM.data screen no
#-------------------------- Wave Propagation -------------------------
unfix        3temp
run          1000000
Memory usage per processor = 5.01437 Mbytes
Step Lx Pxx Pyy Pzz Temp COM1x[1] COM1x[2] COM1x[3] COM2x[1] COM2x[2] COM2x[3] COM3x[1] COM3x[2] COM3x[3] COM4x[1] COM4x[2] COM4x[3] COM5x[1] COM5x[2] COM5x[3] COMall[1 COMall[2 COMall[3 
    5000    2027.7536   -33.599744   -56.324277   -223.48569    301.37719    1.5452717   -0.7953233   -19.252629            0            0            0    1.6454954  -0.80737191   -8.4270186            0            0            0    198.36457  -0.99477372   -19.295186   -1.0196039   -1.0243149   -2012.3479 
    5100    2027.7536   -36.175682   -60.615649   -223.62794    301.34974    1.5157089  -0.80151236    -19.17656            0            0            0    1.5786676  -0.83616102   -8.4364857            0            0            0    198.39484  -0.96858462   -19.251494   -1.0196171    -1.024904   -2012.3481 
    5200    2027.7536   -34.410674   -60.112564   -226.35679     301.2738    1.5029551  -0.80473997   -18.992353            0            0            0    1.5939098  -0.86384748   -8.2255649            0            0            0    198.45178  -0.96608901   -19.237961   -1.0196303   -1.0254932   -2012.3482 
    5300    2027.7536   -37.364479   -63.171324   -223.99412    301.35585    1.5676644  -0.84848289   -19.020311            0            0            0    1.6184182  -0.98587445   -8.1645934            0            0            0    198.48889  -0.96463164   -19.224251   -1.0196435   -1.0260824   -2012.3484 
    5400    2027.7536   -41.566284    -66.16287   -237.60566    301.42748    1.6089655   -0.7991949   -18.855541            0            0            0    1.7405629   -0.9078349   -7.9627134            0            0            0    198.51461  -0.96100573   -19.227284   -1.0196567   -1.0266715   -2012.3485 
    5500    2027.7536   -44.703643   -67.048953   -242.19692    301.34104    1.6009377  -0.80411877   -18.781526            0            0            0    1.6621427  -0.80752857   -7.9296381            0            0            0    198.54966  -0.89184064    -19.25834   -1.0196699   -1.0272607   -2012.3486 
    5600    2027.7536   -38.836257   -67.663755    -243.9039    301.33099    1.6525273  -0.74902196   -18.616616            0            0            0    1.6972544   -0.7415985   -7.7652251            0            0            0    198.52244  -0.82107728   -19.232454   -1.0196831   -1.0278499   -2012.3488 
    5700    2027.7536    -34.30919   -63.633235   -241.84018    301.22287     1.643225  -0.65375771   -18.532101            0            0            0    1.6862403  -0.58978998   -7.7023242            0            0            0    198.58975  -0.83937986   -19.136376   -1.0196963   -1.0284391   -2012.3489 
    5800    2027.7536   -45.329787   -71.614344   -240.66192    301.34655    1.7050927  -0.68723265   -18.440726            0            0            0    1.7223058  -0.59909719   -7.6131345            0            0            0    198.56012  -0.83798087   -19.159959   -1.0197095   -1.0290282   -2012.3491 
    5900    2027.7536   -55.420341   -77.361468   -253.53812    301.45026    1.6871866  -0.59600049   -18.371295            0            0            0    1.7102894  -0.61049377   -7.5535577            0            0            0    198.56645   -0.8268232   -19.177027   -1.0197227   -1.0296174   -2012.3492 
    6000    2027.7536   -47.992394   -66.936123   -249.75244    301.21138    1.7235052  -0.62184115    -18.23648            0            0            0    1.7208466  -0.72515241   -7.4048329            0            0            0    198.55973  -0.81698115   -19.157974   -1.0197359   -1.0302066   -2012.3494 
    6100    2027.7536   -42.860386   -72.531855   -250.68398    301.26476    1.6826095  -0.57304931    -18.14989            0            0            0    1.7050636  -0.66975591   -7.3418719            0            0            0    198.59645  -0.83344973   -19.179122   -1.0197491   -1.0307958   -2012.3495 
    6200    2027.7536   -55.318283   -74.208091   -265.40968    301.38351    1.6537393  -0.59251994   -18.081866            0            0            0    1.6888261  -0.68235543   -7.3465989            0            0            0    198.64757  -0.83358391    -19.17811   -1.0197622   -1.0313849   -2012.3496 
    6300    2027.7536   -44.649607   -74.262349   -252.39604    301.21017     1.607809  -0.66904576   -18.092674            0            0            0    1.6668462  -0.67078838   -7.3816212            0            0            0    198.71097  -0.83981718   -19.248543   -1.0197754   -1.0319741   -2012.3498 
    6400    2027.7536   -53.482087   -82.344963   -260.32127    301.31367    1.5983487  -0.70252181   -18.052091            0            0            0    1.6982787  -0.72577512   -7.2775201            0            0            0    198.71745  -0.87773717   -19.191874   -1.0197886   -1.0325633   -2012.3499 
    6500    2027.7536    -56.28078   -74.603372   -271.95572      301.346    1.5860473   -0.6967958   -17.901946            0            0            0    1.6722413  -0.73120434    -7.092547            0            0            0    198.79779  -0.91616139   -19.109727   -1.0198018   -1.0331525   -2012.3501 
    6600    2027.7536   -52.958989   -82.421979   -268.20256    301.28148    1.5744324  -0.71070235   -17.872002            0            0            0    1.7031841  -0.75613716    -7.120108            0            0            0    198.86449  -0.95081025   -19.161143    -1.019815   -1.0337416   -2012.3502 
    6700    2027.7536   -54.207307   -81.592694   -270.69061     301.2368    1.6189696  -0.73693912   -17.808679            0            0            0    1.6668795   -0.7471924   -7.0671219            0            0            0     198.8772  -0.96976886   -19.179482   -1.0198282   -1.0343308   -2012.3504 
    6800    2027.7536    -60.78463   -86.673012   -286.02826    301.36032    1.6117272  -0.76151973    -17.69343            0            0            0    1.6864343  -0.80712392   -6.9125265            0            0            0    198.90308  -0.96683997   -19.166346   -1.0198414     -1.03492   -2012.3505 
    6900    2027.7536    -65.22243   -90.095775   -281.16958    301.37099     1.607253  -0.73781652   -17.580824            0            0            0    1.6499908  -0.81880055    -6.781349            0            0            0    198.91429  -0.97087607   -19.160669   -1.0198546   -1.0355091   -2012.3507 
    7000    2027.7536   -61.807504   -96.003294   -283.99175    301.32811    1.6496696  -0.74508683   -17.576693            0            0            0      1.73477  -0.80948769   -6.8346232            0            0            0    198.90991  -0.91165997    -19.24395   -1.0198678   -1.0360983   -2012.3508 
    7100    2027.7536   -67.244709   -92.221238      -288.38    301.33652    1.5835421  -0.74724909   -17.614698            0            0            0    1.6186285  -0.77471709   -6.8518743            0            0            0    198.90606  -0.90173565   -19.284795    -1.019881   -1.0366875   -2012.3509 
    7200    2027.7536   -64.631053   -89.651035   -290.16701    301.23866    1.5174925  -0.78615825   -17.559913            0            0            0    1.5849576  -0.75525445   -6.8247962            0            0            0    198.93477  -0.91518855   -19.324689   -1.0198942   -1.0372767   -2012.3511 
    7300    2027.7536   -69.570345   -96.820953   -293.84642    301.36026    1.5745354  -0.79368082   -17.542938            0            0            0    1.6295782  -0.72988516     -6.79239            0            0            0    198.98282  -0.94745273   -19.308392   -1.0199074   -1.0378658   -2012.3512 
    7400    2027.7536    -65.53278   -87.407347   -289.65646    301.20843    1.5735891  -0.70165568    -17.58926            0            0            0    1.6214666  -0.63153279   -6.8217112            0            0            0    198.99508  -0.91154937   -19.340078   -1.0199206    -1.038455   -2012.3514 
    7500    2027.7536   -75.195104    -95.82929   -292.51237    301.31818    1.5874058  -0.76981737   -17.596635            0            0            0     1.693738  -0.73904963   -6.8884512            0            0            0    199.02652  -0.91166021   -19.306566   -1.0199337   -1.0390442   -2012.3515 
    7600    2027.7536    -70.79563   -98.687988   -295.73482     301.3621    1.5922212   -0.8178022   -17.562094            0            0            0    1.6928635  -0.79792929   -6.8333178            0            0            0    199.07106  -0.93269186   -19.317673   -1.0199469   -1.0396334   -2012.3517 
    7700    2027.7536    -72.97746   -94.892054   -295.27356    301.31732    1.5936053  -0.74224656   -17.429694            0            0            0    1.6599241  -0.70263982   -6.6561656            0            0            0    199.07545   -1.0128329   -19.280188   -1.0199601   -1.0402225   -2012.3518 
    7800    2027.7536   -66.791189   -91.685155    -291.0387    301.20354    1.6739841  -0.77338211   -17.407835            0            0            0     1.789786  -0.75977093   -6.6413679            0            0            0    199.08547    -1.023332   -19.279867   -1.0199733   -1.0408117   -2012.3519 
    7900    2027.7536   -77.881932    -102.5596   -299.00309    301.33714    1.6820679  -0.84811357   -17.440807            0            0            0    1.7491933  -0.87770977   -6.7501098            0            0            0    199.08261   -1.0756573   -19.255742   -1.0199865   -1.0414009   -2012.3521 
    8000    2027.7536   -71.100426   -103.98522   -306.29926    301.28479    1.6858471  -0.86039348   -17.385823            0            0            0     1.735903  -0.87410382    -6.596921            0            0            0    199.04405   -1.0508179   -19.256421   -1.0199997   -1.0419901   -2012.3522 
    8100    2027.7536    -72.09175   -102.27614   -306.73924    301.29132    1.6423934  -0.82788258   -17.388558            0            0            0     1.688412  -0.84652998   -6.6289497            0            0            0    199.02501  -0.95996293   -19.249897   -1.0200129   -1.0425792   -2012.3524 
    8200    2027.7536   -72.940298    -104.5305   -300.38131    301.26862    1.6015597  -0.84303042    -17.36176            0            0            0    1.6028376  -0.79619266   -6.5314654            0            0            0    198.99306  -0.91537842   -19.247209   -1.0200261   -1.0431684   -2012.3525 
    8300    2027.7536   -79.617147   -99.276415   -309.42066    301.26134    1.5994332  -0.83409479   -17.329501            0            0            0    1.5436614  -0.82946489   -6.5250048            0            0            0    199.05407  -0.92638396   -19.244968   -1.0200393   -1.0437576   -2012.3527 
    8400    2027.7536   -79.216468   -114.43092    -318.8546    301.45006    1.6138373  -0.80436804   -17.315647            0            0            0     1.606895  -0.80208366   -6.5924567            0            0            0    199.05874   -0.8838844   -19.216366   -1.0200525   -1.0443467   -2012.3528 
    8500    2027.7536    -75.48208   -111.48332   -310.87481    301.30033     1.581642  -0.83697983   -17.331462            0            0            0    1.5767162  -0.88221874   -6.5907617            0            0            0    199.00601   -0.8719701   -19.200125   -1.0200657   -1.0449359   -2012.3529 
    8600    2027.7536    -73.75332   -105.43736   -307.66557    301.24152    1.5808861  -0.84799385    -17.26782            0            0            0    1.5760451   -0.8384248   -6.4873369            0            0            0    199.05459  -0.89689343   -19.213761   -1.0200789   -1.0455251   -2012.3531 
    8700    2027.7536   -73.010395   -103.34219   -309.59639     301.1901    1.6231092  -0.78672168   -17.281647            0            0            0    1.6315481  -0.85679574   -6.5376055            0            0            0    199.01894  -0.91216344   -19.241442   -1.0200921   -1.0461143   -2012.3532 
    8800    2027.7536   -84.778384   -108.24363   -318.27108    301.36745    1.6739684  -0.79199021   -17.286355            0            0            0    1.7366786   -0.8464705   -6.5988118            0            0            0    198.99904  -0.98380328   -19.168201   -1.0201052   -1.0467034   -2012.3534 
    8900    2027.7536   -84.723936   -108.90604   -315.21096    301.27431    1.6576118  -0.61825609    -17.29855            0            0            0    1.6621761  -0.68717695    -6.581241            0            0            0     199.0188  -0.94763432   -19.184559   -1.0201184   -1.0472926   -2012.3535 
    9000    2027.7536   -76.934351    -108.6474   -313.33294     301.2552    1.6650557  -0.64227701   -17.252273            0            0            0    1.7729228  -0.69468264   -6.4501793            0            0            0    198.98739  -0.91564119   -19.238423   -1.0201316   -1.0478818   -2012.3537 
    9100    2027.7536   -87.032218   -107.33809   -320.96675    301.30973    1.6457236  -0.57708308   -17.260177            0            0            0    1.7933029  -0.62907475   -6.4641771            0            0            0    198.99927   -0.8422832   -19.171142   -1.0201448    -1.048471   -2012.3538 
    9200    2027.7536   -84.763421    -105.1219   -321.11562    301.34436    1.6092329  -0.57307907   -17.281937            0            0            0    1.7397291  -0.55678326   -6.5401016            0            0            0    198.98052  -0.85135583   -19.170614    -1.020158   -1.0490601   -2012.3539 
    9300    2027.7536   -82.161376    -109.7601   -319.78346    301.32738    1.6653706  -0.66971011   -17.336106            0            0            0    1.7470682  -0.67909628   -6.6206714            0            0            0    198.93697   -0.9232563   -19.098366   -1.0201712   -1.0496493   -2012.3541 
    9400    2027.7536   -76.689232   -102.35257   -309.51971     301.2286    1.7409495  -0.75637915   -17.414131            0            0            0    1.8073793  -0.81250398   -6.6787519            0            0            0    198.96099  -0.96048551   -19.125016   -1.0201844   -1.0502385   -2012.3542 
    9500    2027.7536   -87.501398   -105.68059   -322.48345    301.35263    1.7038573  -0.75402484   -17.425405            0            0            0    1.7339543  -0.80567648   -6.6301745            0            0            0    199.00103  -0.99381948   -19.128754   -1.0201976   -1.0508277   -2012.3544 
    9600    2027.7536   -82.636208   -101.20895   -314.19233    301.23658    1.7199346  -0.78573894   -17.411384            0            0            0    1.6910202  -0.85473202   -6.6388679            0            0            0    198.95858   -1.0355404   -19.114103   -1.0202108   -1.0514168   -2012.3545 
    9700    2027.7536   -80.819204    -109.8653   -325.23641    301.35514     1.730797  -0.83376062   -17.375159            0            0            0    1.7127208  -0.76377883   -6.6423912            0            0            0    198.94899   -1.0272952    -19.10708    -1.020224    -1.052006   -2012.3547 
    9800    2027.7536   -83.207987   -104.44296   -320.87377    301.29266    1.7077801  -0.79651038    -17.30034            0            0            0    1.7071956  -0.73564437   -6.5855574            0            0            0     198.9266   -1.0045611   -19.050317   -1.0202372   -1.0525952   -2012.3548 
    9900    2027.7536   -81.619585   -106.68563   -322.90259    301.28666    1.7210357   -0.8308094   -17.348356            0            0            0    1.7975491  -0.88432638   -6.6470441            0            0            0    198.92698   -1.0449509   -19.030089   -1.0202504   -1.0531843   -2012.3549 
   10000    2027.7536   -86.006212   -111.17666   -326.37807     301.3555    1.7274052  -0.85123913   -17.389724            0            0            0    1.8118865   -0.8754814   -6.6490018            0            0            0    198.94391   -1.0155469   -18.926884   -1.0202635   -1.0537735   -2012.3551 
   10100    2027.7536   -89.426176   -108.79337   -322.43351    301.32229    1.7297158  -0.88316573   -17.333214            0            0            0    1.7774188  -0.89209383   -6.6015428            0            0            0     198.9475    -1.026848   -18.945396   -1.0202767   -1.0543627   -2012.3552 
   10200    2027.7536   -78.104778   -109.73643   -323.98003    301.26742    1.6829827  -0.91295397   -17.391144            0            0            0    1.7510829  -0.92677658   -6.6158297            0            0            0    198.92462   -1.0102986   -18.949529   -1.0202899   -1.0549519   -2012.3554 
   10300    2027.7536   -79.371796   -111.34261   -316.02217    301.29288     1.638031  -0.93539692   -17.420045            0            0            0    1.7006483  -0.91376694   -6.6287336            0            0            0    198.94263  -0.95636436   -18.896953   -1.0203031    -1.055541   -2012.3555 
   10400    2027.7536   -73.392854   -109.27581   -324.31215    301.32794    1.6923073  -0.90402182   -17.363801            0            0            0    1.8007066  -0.93399039   -6.6796605            0            0            0    198.95711  -0.99310337    -18.82918   -1.0203163   -1.0561302   -2012.3557 
   10500    2027.7536   -73.864793   -111.59985   -325.14395    301.33449    1.6070201  -0.86430782   -17.333877            0            0            0     1.659429  -0.96241309   -6.6700336            0            0            0    198.96291    -1.027035   -18.760302   -1.0203295   -1.0567194   -2012.3558 
   10600    2027.7536   -79.578294   -113.87929   -319.95397    301.37628     1.609355   -0.8284888   -17.345288            0            0            0    1.6630049  -0.90202572   -6.6629785            0            0            0    198.97098   -1.0072868   -18.706335   -1.0203427   -1.0573086    -2012.356 
   10700    2027.7536   -78.086141   -102.60771   -318.87673     301.2954    1.5757514  -0.88966767   -17.393875            0            0            0    1.6324136  -0.89148145   -6.7918936            0            0            0    198.96757   -1.0282447   -18.737449   -1.0203559   -1.0578977   -2012.3561 
   10800    2027.7536   -82.009119   -116.24753   -325.13715    301.39468    1.6179961  -0.82057912   -17.314246            0            0            0    1.6885826  -0.84146639   -6.6216286            0            0            0    199.03963  -0.95433942   -18.716584   -1.0203691   -1.0584869   -2012.3562 
   10900    2027.7536   -83.229208   -115.23608   -320.18284    301.31895    1.5932161  -0.78918754   -17.367048            0            0            0    1.6496248  -0.79036754   -6.5898634            0            0            0    199.01296  -0.95889887   -18.687077   -1.0203823   -1.0590761   -2012.3564 
   11000    2027.7536   -79.475876   -119.83812    -327.9271    301.37984    1.6581753  -0.80357413   -17.349865            0            0            0    1.7138633  -0.76039175   -6.6821298            0            0            0    198.99153   -1.0051672   -18.621023   -1.0203955   -1.0596653   -2012.3565 
   11100    2027.7536   -82.942687   -109.63527   -318.85201    301.24724    1.6675234  -0.82233801   -17.426583            0            0            0    1.7493173  -0.81630763   -6.7365024            0            0            0     198.9697   -1.0485336    -18.61074   -1.0204087   -1.0602544   -2012.3567 
   11200    2027.7536   -85.791214   -109.69482   -319.62073    301.30736    1.6492101  -0.79873728   -17.441061            0            0            0    1.7575955  -0.82379536    -6.737056            0            0            0    198.96607   -1.0833909   -18.621779   -1.0204219   -1.0608436   -2012.3568 
   11300    2027.7536   -81.842741   -112.63697   -322.05424    301.30472    1.6501938  -0.81446946   -17.415981            0            0            0    1.7884577  -0.82893668   -6.6756338            0            0            0    198.99367   -1.1189361   -18.610477    -1.020435   -1.0614328    -2012.357 
   11400    2027.7536    -84.81048   -110.26038   -317.70399    301.27925    1.5987333  -0.88130602   -17.381862            0            0            0    1.7107784  -0.90672906   -6.6602178            0            0            0    198.98489   -1.1011083   -18.620757   -1.0204482   -1.0620219   -2012.3571 
   11500    2027.7536   -80.931911   -103.93286   -320.95557    301.26151    1.6309911  -0.88628433   -17.294216            0            0            0    1.6973776  -0.96343529   -6.5092725            0            0            0    199.00045   -1.1081171   -18.614477   -1.0204614   -1.0626111   -2012.3572 
   11600    2027.7536   -80.373436   -103.77985   -316.57094    301.29002    1.6874265  -0.81752454   -17.301328            0            0            0    1.7556089  -0.87321063   -6.6126607            0            0            0    198.93757    -1.130176   -18.667592   -1.0204746   -1.0632003   -2012.3574 
   11700    2027.7536   -80.278433   -101.49429   -310.94466     301.2332     1.704601  -0.85305669   -17.344108            0            0            0    1.8123761   -0.8683934   -6.7092172            0            0            0    198.96285   -1.1157865   -18.664407   -1.0204878   -1.0637895   -2012.3575 
   11800    2027.7536   -84.628902   -103.77301   -310.27852    301.46995    1.6685115  -0.79543054   -17.411993            0            0            0    1.6585928   -0.7660533   -6.6991818            0            0            0    198.91641   -1.0739129   -18.695582    -1.020501   -1.0643786   -2012.3577 
   11900    2027.7536    -78.81514   -98.402363   -296.31943    301.39163    1.6572519  -0.84126755   -17.409772            0            0            0    1.6518979  -0.81942699   -6.7014869            0            0            0    198.91821    -1.017962   -18.725761   -1.0205142   -1.0649678   -2012.3578 
   12000    2027.7536   -63.426842   -86.699253   -283.34663    301.30588     1.655079  -0.85607799   -17.421597            0            0            0    1.6386516  -0.83037781   -6.6360726            0            0            0    198.92455  -0.99035707   -18.772975   -1.0205274    -1.065557    -2012.358 
   12100    2027.7536   -53.918584   -75.291804   -259.54758    301.39755    1.6307736  -0.83626023   -17.442491            0            0            0    1.6837663  -0.79013802   -6.7155398            0            0            0    198.91458  -0.88894044   -18.777072   -1.0205406   -1.0661462   -2012.3581 
   12200    2027.7536   -39.623163   -66.271233   -242.56232    301.44562    1.6444751  -0.76399758   -17.520123            0            0            0    1.7691159  -0.71675159   -6.8670571            0            0            0    198.89516    -0.938678   -18.819277   -1.0205538   -1.0667353   -2012.3582 
   12300    2027.7536   -24.702875   -43.692351   -211.08312    301.45405    1.5511885  -0.78980667   -17.564031            0            0            0    1.6632315   -0.7632927    -6.939847            0            0            0    198.86069  -0.91289977   -18.816024    -1.020567   -1.0673245   -2012.3584 
   12400    2027.7536   -4.9440165   -23.773875   -171.60667    301.40884    1.5591886  -0.82441756   -17.660253            0            0            0     1.631744  -0.83568401   -6.9489892            0            0            0    198.84787  -0.90818076   -18.826987   -1.0205802   -1.0679137   -2012.3585 
   12500    2027.7536    20.251973   -9.3646516   -140.82894    301.45664    1.5099858  -0.79255525   -17.673388            0            0            0    1.5603287  -0.82711009   -6.9646213            0            0            0    198.87773  -0.89919887   -18.853604   -1.0205934   -1.0685029   -2012.3587 
   12600    2027.7536    34.881446    13.880105   -103.24277    301.46137    1.5110838  -0.89863296   -17.718795            0            0            0    1.5686275  -0.91666335   -7.0446439            0            0            0    198.86261  -0.89891691   -18.886789   -1.0206065    -1.069092   -2012.3588 
   12700    2027.7536    39.174648    18.225289   -96.860015    301.56982     1.559654  -0.88580389   -17.727043            0            0            0    1.5530026  -0.90210217   -7.0801414            0            0            0    198.84412  -0.91914633   -18.943624   -1.0206197   -1.0696812    -2012.359 
   12800    2027.7536    54.439174    33.291776   -70.154556    301.44243    1.5216382  -0.88586867   -17.863874            0            0            0    1.5223304  -0.85653831   -7.2328003            0            0            0    198.84829  -0.91320996    -18.97576   -1.0206329   -1.0702704   -2012.3591 
   12900    2027.7536    57.495093    45.731972   -49.533089    301.49956    1.5419505  -0.84354783   -17.923229            0            0            0    1.5974177   -0.8674319   -7.2793513            0            0            0     198.7954   -0.9899498   -18.980955   -1.0206461   -1.0708595   -2012.3592 
   13000    2027.7536    67.165545    41.373964   -36.075535    301.53725    1.5287318  -0.88101377   -17.980012            0            0            0    1.5614451  -0.87089277   -7.3152604            0            0            0    198.82112   -1.0225452    -19.02169   -1.0206593   -1.0714487   -2012.3594 
   13100    2027.7536    70.834407    49.725557   -28.783318    301.54933    1.5144293  -0.89469252   -17.980448            0            0            0    1.5621317  -0.96547742   -7.2988227            0            0            0    198.81365   -1.0357625   -19.076705   -1.0206725   -1.0720379   -2012.3595 
   13200    2027.7536    81.087939    55.761762   -22.679848    301.48935    1.4743227  -0.92197391   -18.012713            0            0            0    1.5050748    -1.072874   -7.2911945            0            0            0    198.81653    -1.075823   -19.071608   -1.0206857   -1.0726271   -2012.3597 
   13300    2027.7536    84.765728    58.367079   -13.425848    301.46822    1.5216119  -0.82763755   -18.031585            0            0            0    1.5253993  -0.91582426   -7.3449483            0            0            0    198.78347   -1.0173306    -19.08408   -1.0206989   -1.0732162   -2012.3598 
   13400    2027.7536     83.97607    55.136728   -14.090031     301.5189    1.5516896  -0.71181964   -18.003766            0            0            0    1.6186535  -0.72681087   -7.3260309            0            0            0    198.78143   -1.0186167   -19.157714   -1.0207121   -1.0738054     -2012.36 
[...]
   41500    2027.7536    263.96875    239.53168     311.7843    301.75715      1.29594  -0.92494811   -19.972204            0            0            0    1.3006056   -0.9734598   -9.4725233            0            0            0    197.83711   -1.4123784    -19.80773   -1.0244191   -1.2393631   -2012.4002 
   41600    2027.7536    262.31296    234.22166    310.34454    301.83021    1.2668867  -0.98750459   -19.909463            0            0            0    1.3296471   -1.0506052   -9.4091792            0            0            0    197.85435   -1.4758592   -19.867512   -1.0244322   -1.2399523   -2012.4003 
   41700    2027.7536    259.66813    244.67704    318.67287    301.68011    1.2536629   -1.0263571   -19.856394            0            0            0    1.2643018   -1.0394348   -9.2993095            0            0            0    197.85098   -1.4166853   -19.943291   -1.0244454   -1.2405415   -2012.4005 
   41800    2027.7536    269.06384     240.9222    307.60819    301.73057     1.281275  -0.97040176   -19.812519            0            0            0    1.3147784  -0.97664905   -9.2694338            0            0            0    197.85224   -1.3798472   -19.917325   -1.0244586   -1.2411306   -2012.4006 
   41900    2027.7536    262.56292    239.08039    317.39424    301.69479    1.2911917  -0.99697605    -19.74344            0            0            0     1.297142  -0.96466061   -9.1883406            0            0            0    197.87315   -1.4377866   -19.960801   -1.0244718   -1.2417198   -2012.4008 
   42000    2027.7536    263.46593    233.60734    312.05335    301.79632    1.2768296   -1.0378062    -19.67551            0            0            0     1.326734   -1.0470621   -9.1389041            0            0            0    197.87169   -1.4354629   -20.027761    -1.024485    -1.242309   -2012.4009 
   42100    2027.7536    261.54589     241.9321    305.68168    301.77531    1.3153224   -1.0610232   -19.714972            0            0            0    1.3256706   -1.0100012   -9.1376587            0            0            0    197.91453   -1.4325326    -20.07212   -1.0244982   -1.2428982   -2012.4011 
   42200    2027.7536    255.62138     241.4984    312.30544    301.80054    1.2874749  -0.99295495   -19.637747            0            0            0     1.338104   -1.0345987   -9.1399363            0            0            0     197.9331   -1.3527182   -20.065379   -1.0245114   -1.2434873   -2012.4012 
   42300    2027.7536    261.59282    249.44119    312.50278    301.64401    1.3173531   -0.9677664   -19.610281            0            0            0    1.3718497   -1.0298171    -9.086791            0            0            0    197.97541   -1.3155678   -20.086068   -1.0245246   -1.2440765   -2012.4013 
   42400    2027.7536    250.57576    239.47533    308.98537    301.87792    1.3090453  -0.91390283   -19.610491            0            0            0    1.3220907  -0.92748167   -9.1245538            0            0            0     198.0327   -1.3132192   -20.119363   -1.0245378   -1.2446657   -2012.4015 
   42500    2027.7536    258.63071    239.83603    309.27217    301.73732    1.2910188  -0.91792595   -19.554442            0            0            0    1.2946343  -0.88240018   -9.0160737            0            0            0     198.0396   -1.3306892    -20.10103    -1.024551   -1.2452548   -2012.4016 
   42600    2027.7536    259.14658    245.69133    313.31265    301.75486    1.2603385  -0.96795136   -19.570642            0            0            0    1.2837589  -0.94051326     -9.02837            0            0            0       198.05   -1.3161565   -20.075067   -1.0245642    -1.245844   -2012.4018 
   42700    2027.7536    261.30531    240.44655    323.75732     301.7233    1.2402118   -0.9095847   -19.570675            0            0            0    1.2401646  -0.92314523   -9.0655086            0            0            0    198.05027   -1.2947719   -20.069606   -1.0245774   -1.2464332   -2012.4019 
   42800    2027.7536    258.58727    243.61307      315.682     301.8477    1.2299695  -0.94708004   -19.583752            0            0            0    1.3108686  -0.96162264   -9.0742325            0            0            0    198.06967   -1.2399974   -20.043109   -1.0245906   -1.2470224   -2012.4021 
   42900    2027.7536    262.78002    241.51116    315.02224    301.81295    1.2658626   -1.0099504   -19.561004            0            0            0    1.3398259   -1.0724645   -9.1005099            0            0            0    198.04974   -1.1988445   -20.087295   -1.0246037   -1.2476115   -2012.4022 
   43000    2027.7536    260.79168     241.4542    318.04766    301.79429    1.2501823   -1.0832996   -19.553027            0            0            0    1.3366618   -1.1273381    -9.026756            0            0            0    198.06228   -1.1953884   -20.088511   -1.0246169   -1.2482007   -2012.4023 
   43100    2027.7536    272.02598    245.69332    323.83417     301.6053    1.2654568    -1.204549   -19.483978            0            0            0    1.3434416   -1.2452585   -8.9345312            0            0            0    198.10805   -1.2581204   -19.991474   -1.0246301   -1.2487899   -2012.4025 
   43200    2027.7536    260.89933    235.46598      308.245    301.81016    1.2684343   -1.1464531   -19.482639            0            0            0    1.3171257   -1.2103621   -8.9368178            0            0            0     198.1208   -1.2332836   -20.015516   -1.0246433   -1.2493791   -2012.4026 
   43300    2027.7536    258.50323    235.82568    306.10979    301.80574     1.256778   -1.1513458   -19.443119            0            0            0    1.2791889   -1.2198102   -8.8941731            0            0            0    198.13831   -1.2321802   -20.003518   -1.0246565   -1.2499682   -2012.4028 
   43400    2027.7536    253.06717    234.06291    296.83065    301.84175    1.2481759   -1.1235476   -19.412353            0            0            0    1.2778946   -1.1450487   -8.9361219            0            0            0    198.09883   -1.1989593   -20.030718   -1.0246697   -1.2505574   -2012.4029 
   43500    2027.7536    243.24407    222.33723    283.44861    301.85856    1.2547508   -1.1011004   -19.387827            0            0            0     1.337938   -1.0696295   -8.9065087            0            0            0    198.11684   -1.1606524   -19.926299   -1.0246829   -1.2511466   -2012.4031 
   43600    2027.7536    240.08438    219.53685    275.07031    301.72305    1.2390133   -1.0508439   -19.311358            0            0            0    1.2700595  -0.96908661   -8.7656737            0            0            0    198.16868   -1.1348064    -19.90528   -1.0246961   -1.2517358   -2012.4032 
   43700    2027.7536    230.97941    209.94509     256.2772    301.67881    1.2387453   -1.0607968   -19.291196            0            0            0    1.2364162  -0.99208954   -8.7625502            0            0            0    198.16259   -1.1290724   -19.912424   -1.0247093   -1.2523249   -2012.4034 
   43800    2027.7536    215.45767    190.64382    220.63659    301.75742    1.2578762   -1.1114301    -19.21259            0            0            0    1.2408741   -1.0789617   -8.6965439            0            0            0    198.16527   -1.2118356    -19.88004   -1.0247225   -1.2529141   -2012.4035 
   43900    2027.7536     203.6431    176.06411    199.60901    301.63613    1.2784263   -1.1402172   -19.189092            0            0            0    1.2977975   -1.0944793   -8.7424314            0            0            0    198.16449   -1.2540691   -19.824693   -1.0247357   -1.2535033   -2012.4036 
   44000    2027.7536    183.56667    160.09616    167.59892    301.66856    1.2662822   -1.1408586   -19.138754            0            0            0    1.2994717   -1.1242032   -8.6929229            0            0            0     198.1476   -1.2121207   -19.763142   -1.0247489   -1.2540924   -2012.4038 
   44100    2027.7536    165.34847    144.22869    139.81081    301.80195    1.2749588   -1.1009136   -19.064484            0            0            0    1.3154603   -1.0958945   -8.5051322            0            0            0    198.13806   -1.1928692   -19.682992    -1.024762   -1.2546816   -2012.4039 
   44200    2027.7536    165.24805    133.94433    129.00728     301.6494    1.2740137   -1.1050796   -19.002838            0            0            0    1.3096947   -1.0893163    -8.444561            0            0            0    198.13486   -1.1499181   -19.653286   -1.0247752   -1.2552708   -2012.4041 
   44300    2027.7536    155.09837    137.96404    113.72728    301.55084    1.2625281    -1.125132    -18.95207            0            0            0    1.2682405   -1.1328765   -8.3985559            0            0            0    198.10031   -1.1042246   -19.605542   -1.0247884     -1.25586   -2012.4042 
   44400    2027.7536    138.66464    123.55937    89.990079    301.70141    1.2663179   -1.1198576   -18.938164            0            0            0    1.2708229   -1.0996087   -8.4237593            0            0            0     198.0763   -1.1039664   -19.584004   -1.0248016   -1.2564491   -2012.4044 
   44500    2027.7536    131.49886     106.8617    82.197706    301.61091    1.2070126   -1.1080524   -18.897902            0            0            0    1.2446389   -1.1574924   -8.3793337            0            0            0    198.07443   -1.1405091   -19.480918   -1.0248148   -1.2570383   -2012.4045 
   44600    2027.7536    122.39693    99.534202     61.18069    301.71018    1.2515143   -1.1604841   -18.901173            0            0            0    1.3379885   -1.1942367    -8.389434            0            0            0    198.09747    -1.201171   -19.386736    -1.024828   -1.2576275   -2012.4046 
   44700    2027.7536    115.06005    100.23541    58.233058    301.60274    1.2875106   -1.1886146    -18.79403            0            0            0    1.3736439   -1.2346033   -8.2814518            0            0            0    198.13237   -1.1811827   -19.329835   -1.0248412   -1.2582167   -2012.4048 
   44800    2027.7536    117.53996    94.853543    47.731304    301.53464    1.3004057   -1.2121167   -18.781015            0            0            0    1.3676454   -1.3008006   -8.2385186            0            0            0    198.11736   -1.1399435   -19.273848   -1.0248544   -1.2588058   -2012.4049 
   44900    2027.7536    113.51931    87.966968    32.328472    301.61076    1.3014735   -1.2680665     -18.7571            0            0            0    1.3483847   -1.3195705   -8.2429623            0            0            0    198.12932   -1.1434201   -19.232338   -1.0248676    -1.259395   -2012.4051 
   45000    2027.7536    105.79216    78.569825    26.641069    301.63466    1.3112841   -1.2714766   -18.770045            0            0            0    1.3344212   -1.3372153   -8.2708397            0            0            0    198.17266   -1.1405162   -19.196077   -1.0248808   -1.2599842   -2012.4052 
   45100    2027.7536     112.6421    76.773778    12.772958    301.55239    1.3243978   -1.2975569   -18.768545            0            0            0      1.31597   -1.3623181   -8.2727171            0            0            0    198.14429   -1.2277826   -19.156545    -1.024894   -1.2605734   -2012.4054 
   45200    2027.7536    98.917812    80.920066    19.920745    301.53195     1.283375   -1.2883452   -18.724013            0            0            0    1.2868082   -1.3739919   -8.2338751            0            0            0    198.13501    -1.175371   -19.116175   -1.0249072   -1.2611625   -2012.4055 
   45300    2027.7536     102.0878    74.454326    16.666785     301.5632    1.2389528   -1.2311968   -18.685601            0            0            0    1.2715913   -1.2904637   -8.1763894            0            0            0    198.13774   -1.1400819   -19.011176   -1.0249204   -1.2617517   -2012.4056 
   45400    2027.7536    94.690364    73.995907    14.204738    301.55183    1.2440152   -1.2003076   -18.699877            0            0            0    1.3039315   -1.1598564   -8.1548764            0            0            0    198.17236   -1.1778247   -18.961842   -1.0249335   -1.2623409   -2012.4058 
   45500    2027.7536    100.51782    68.852424    9.8482172    301.60844    1.2730755   -1.1474393   -18.757413            0            0            0    1.3112242   -1.0721675   -8.2119141            0            0            0    198.14642   -1.1543276   -18.934828   -1.0249467     -1.26293   -2012.4059 
   45600    2027.7536    103.53281    76.676301    12.352934    301.42897    1.2505189   -1.1451796   -18.695277            0            0            0    1.2751755   -1.1184742   -8.1391052            0            0            0    198.15004   -1.1843343    -18.88828   -1.0249599   -1.2635192   -2012.4061 
   45700    2027.7536    94.045549    68.844153    5.0273434    301.63471    1.2110321   -1.0923759   -18.647573            0            0            0    1.2799619   -1.0800343   -8.1242105            0            0            0    198.13536    -1.184255   -18.903431   -1.0249731   -1.2641084   -2012.4062 
   45800    2027.7536    98.167749    73.510659    8.5603691     301.5213    1.2348544   -1.1238603   -18.610245            0            0            0    1.2706913    -1.144805   -8.0460689            0            0            0    198.11919   -1.2818117   -18.917021   -1.0249863   -1.2646976   -2012.4064 
   45900    2027.7536    96.868253     72.69213    14.275008    301.53517    1.2650055    -1.178196   -18.524635            0            0            0    1.3148245   -1.2559724   -7.9466966            0            0            0    198.09648   -1.3300836   -18.870482   -1.0249995   -1.2652867   -2012.4065 
   46000    2027.7536    90.073487    67.169122     8.965239    301.62217    1.2364024   -1.1916237   -18.569676            0            0            0     1.306387   -1.2366851   -8.0388114            0            0            0     198.0795   -1.2759412   -18.837363   -1.0250127   -1.2658759   -2012.4066 
   46100    2027.7536    87.799466    69.162376    5.8356744    301.53937    1.2322899   -1.2103192   -18.549793            0            0            0    1.2808599   -1.2272312   -8.1131689            0            0            0    198.05554    -1.240786   -18.836179   -1.0250259   -1.2664651   -2012.4068 
   46200    2027.7536    96.460608    71.626362  -0.72001083    301.44442    1.2531841   -1.1540075   -18.560581            0            0            0    1.3058636   -1.0883122   -8.0886474            0            0            0    198.08774   -1.2640624   -18.792199   -1.0250391   -1.2670543   -2012.4069 
   46300    2027.7536    90.222253    67.995609   -1.7316879    301.58704     1.272049   -1.2173366   -18.581609            0            0            0    1.3412342    -1.198147    -8.052043            0            0            0    198.13058   -1.2535406   -18.800508   -1.0250523   -1.2676434   -2012.4071 
   46400    2027.7536    89.771705     73.98359    -2.498749    301.50268    1.3298176    -1.199672   -18.651811            0            0            0    1.4060505   -1.1947572   -8.1336246            0            0            0    198.15986   -1.2566591   -18.857933   -1.0250655   -1.2682326   -2012.4072 
   46500    2027.7536    89.329499    70.065385   -3.0710881    301.50775    1.3405972   -1.1961682   -18.685059            0            0            0    1.3759196   -1.1986883   -8.1416517            0            0            0    198.17452   -1.2771093   -18.851422   -1.0250787   -1.2688218   -2012.4074 
   46600    2027.7536    89.218398    69.890858   -9.3344845    301.51207    1.3302727   -1.1378121   -18.663699            0            0            0    1.3638608   -1.1263406   -8.1013333            0            0            0    198.16112    -1.315921    -18.85103   -1.0250919    -1.269411   -2012.4075 
   46700    2027.7536    78.978406    63.488461   -16.621121    301.64829    1.3243992   -1.1177549   -18.677093            0            0            0    1.3635393   -1.1098574   -8.1493568            0            0            0    198.18594   -1.2959993    -18.92355    -1.025105   -1.2700001   -2012.4076 
   46800    2027.7536    88.950278     71.52318   -11.862432    301.53468     1.339494   -1.2037113   -18.688176            0            0            0    1.4027915   -1.2151114   -8.2216681            0            0            0    198.20395   -1.3405113   -18.929164   -1.0251182   -1.2705893   -2012.4078 
   46900    2027.7536    93.457921    68.327758   -10.205683    301.53527    1.3106078   -1.2815419   -18.733835            0            0            0    1.4008596   -1.2813442   -8.2345951            0            0            0     198.1512   -1.3421385   -18.916076   -1.0251314   -1.2711785   -2012.4079 
   47000    2027.7536    90.691375    67.229345   -11.019073    301.52005    1.3243395   -1.2304912   -18.788213            0            0            0    1.4206007   -1.2794079   -8.2580959            0            0            0    198.16365   -1.3465835   -18.951186   -1.0251446   -1.2717676   -2012.4081 
   47100    2027.7536    85.283016    63.932396    -10.94879    301.53631    1.3359365   -1.1901309   -18.758156            0            0            0    1.3726602   -1.1860282   -8.2587872            0            0            0    198.21085   -1.3710071   -18.909704   -1.0251578   -1.2723568   -2012.4082 
   47200    2027.7536    88.211059    61.600277   -14.095111    301.53352    1.3619467   -1.1555935   -18.798978            0            0            0    1.3744261   -1.1362428    -8.284981            0            0            0     198.2402    -1.385998   -18.872962    -1.025171    -1.272946   -2012.4084 
   47300    2027.7536    77.974742    59.509591    -18.92308    301.53105    1.3688142   -1.1240724   -18.810948            0            0            0    1.4112884    -1.110633   -8.3304116            0            0            0    198.23573   -1.3233066    -18.87769   -1.0251842   -1.2735352   -2012.4085 
   47400    2027.7536    84.395315    60.579116   -13.395057    301.51688    1.3530594   -1.1798074    -18.79348            0            0            0    1.4148568   -1.2012239   -8.3297707            0            0            0    198.22938    -1.318689   -18.889567   -1.0251974   -1.2741243   -2012.4086 
   47500    2027.7536    85.106673     50.22214   -19.440651    301.51162    1.3639495   -1.2123233   -18.831079            0            0            0    1.3909632   -1.2422501   -8.3263061            0            0            0    198.19796      -1.3691   -18.903072   -1.0252106   -1.2747135   -2012.4088 
   47600    2027.7536    78.632904    56.325121    -17.37024    301.55801    1.3464336   -1.1494376   -18.809691            0            0            0    1.3644033   -1.2116636   -8.3258432            0            0            0    198.19924    -1.434494   -18.920839   -1.0252238   -1.2753027   -2012.4089 
   47700    2027.7536    79.647812    53.778976   -24.746271    301.59258    1.3494692   -1.1238707   -18.799478            0            0            0    1.3563785    -1.184425   -8.2928747            0            0            0    198.20697   -1.4585844   -18.901283    -1.025237   -1.2758919   -2012.4091 
   47800    2027.7536     81.19338    61.404848   -13.093599    301.46376    1.3390053   -1.1751984   -18.728878            0            0            0    1.3892754   -1.2451641   -8.1780235            0            0            0    198.25838     -1.47396   -18.882831   -1.0252502    -1.276481   -2012.4092 
