LAMMPS (16 Feb 2016)
# ------------------------ INITIALIZATION ----------------------------
echo both
#log		log.c
units           metal
dimension       3
boundary        p p p
atom_style      atomic
shell         mkdir  cfg
WARNING: Shell command 'mkdir' failed with error 'File exists' (../input.cpp:1126)
shell         mkdir  dump
WARNING: Shell command 'mkdir' failed with error 'File exists' (../input.cpp:1126)


# ----------------------- ATOM DEFINITION & Force Field -------------
lattice         fcc 3.615 #origin 0.0 0.0 0.0 orient x 1 -1 0 orient y 1 1 -2 orient z 1 1 1
Lattice spacing in x,y,z = 3.615 3.615 3.615
variable        Lx equal 65
variable        Ly equal 3
variable        Lz equal 260
variable        boxLZ equal 270
region          SYSTEM block -${Lx} ${Lx} -${Ly} ${Ly} -${Lz} 0 units lattice
region          SYSTEM block -65 ${Lx} -${Ly} ${Ly} -${Lz} 0 units lattice
region          SYSTEM block -65 65 -${Ly} ${Ly} -${Lz} 0 units lattice
region          SYSTEM block -65 65 -3 ${Ly} -${Lz} 0 units lattice
region          SYSTEM block -65 65 -3 3 -${Lz} 0 units lattice
region          SYSTEM block -65 65 -3 3 -260 0 units lattice
region          BOX block -${Lx} ${Lx} -${Ly} ${Ly} -${boxLZ} 5 units lattice
region          BOX block -65 ${Lx} -${Ly} ${Ly} -${boxLZ} 5 units lattice
region          BOX block -65 65 -${Ly} ${Ly} -${boxLZ} 5 units lattice
region          BOX block -65 65 -3 ${Ly} -${boxLZ} 5 units lattice
region          BOX block -65 65 -3 3 -${boxLZ} 5 units lattice
region          BOX block -65 65 -3 3 -270 5 units lattice
create_box      1 BOX
Created orthogonal box = (-234.975 -10.845 -976.05) to (234.975 10.845 18.075)
  16 by 1 by 32 MPI processor grid
create_atoms    1 region SYSTEM
Created 812760 atoms

delete_atoms     porosity BOX 0.001 6393
Deleted 778 atoms, new total = 811982

#---------------------------------------------------------------------


pair_style      eam/alloy
pair_coeff  	  * * Cu01.eam.alloy Cu

#----------------------------------------------------------------------
velocity       all create 300.0 32498 mom yes rot yes dist gaussian
fix             1 all npt temp 300 300 0.1 iso 0.0 0.0 2
run      10000
Neighbor list info ...
  1 neighbor list requests
  update every 1 steps, delay 10 steps, check yes
  max neighbors/atom: 2000, page size: 100000
  master list distance cutoff = 7.50679
  ghost atom cutoff = 7.50679
  binsize = 3.75339 -> bins = 126 6 265
Memory usage per processor = 2.15788 Mbytes
Step Temp E_pair E_mol TotEng Press Volume 
       0          300   -2871682.9            0   -2840195.9     2707.901     10133330 
   10000    299.99799   -2839590.4            0   -2808103.6   -39.223308     10268774 
Loop time of 125.891 on 512 procs for 10000 steps with 811982 atoms

Performance: 6.863 ns/day, 3.497 hours/ns, 79.434 timesteps/s
99.9% CPU use with 512 MPI tasks x no OpenMP threads

MPI task timing breakdown:
Section |  min time  |  avg time  |  max time  |%varavg| %total
---------------------------------------------------------------
Pair    | 35.177     | 81.446     | 89.773     | 110.6 | 64.70
Neigh   | 0.00018167 | 0.061054   | 0.073441   |   5.5 |  0.05
Comm    | 2.818      | 12.161     | 36.439     | 131.8 |  9.66
Output  | 0.00096917 | 0.00097956 | 0.001121   |   0.0 |  0.00
Modify  | 24.857     | 31.249     | 86.381     | 180.2 | 24.82
Other   |            | 0.9721     |            |       |  0.77

Nlocal:    1585.9 ave 1828 max 0 min
Histogram: 16 0 0 0 16 0 0 11 196 273
Nghost:    4599.9 ave 5150 max 499 min
Histogram: 16 0 0 15 1 0 16 0 90 374
Neighs:    111631 ave 128918 max 0 min
Histogram: 16 0 0 16 0 0 0 11 155 314

Total # of neighbors = 57155241
Ave neighs/atom = 70.3898
Neighbor list builds = 10
Dangerous builds =unfunfix 1

fix            2 all nvt temp 300.0 300.0 0.1

run      10000
Memory usage per processor = 2.15847 Mbytes
Step Temp E_pair E_mol TotEng Press 
   10000    299.99799   -2839590.4            0   -2808103.6   -39.223308 
   20000    299.64131   -2839563.7            0   -2808114.3   -412.64386 
Loop time of 124.749 on 512 procs for 10000 steps with 811982 atoms

Performance: 6.926 ns/day, 3.465 hours/ns, 80.161 timesteps/s
99.9% CPU use with 512 MPI tasks x no OpenMP threads

MPI task timing breakdown:
Section |  min time  |  avg time  |  max time  |%varavg| %total
---------------------------------------------------------------
Pair    | 34.802     | 80.204     | 87.679     | 109.0 | 64.29
Neigh   | 1.8835e-05 | 0.0060521  | 0.0073621  |   1.7 |  0.00
Comm    | 2.823      | 11.947     | 35.842     | 132.0 |  9.58
Output  | 0.0002048  | 0.00021714 | 0.0003581  |   0.1 |  0.00
Modify  | 20.895     | 27.653     | 81.616     | 188.5 | 22.17
Other   |            | 4.938      |            |       |  3.96

Nlocal:    1585.9 ave 1811 max 0 min
Histogram: 16 0 0 0 16 0 0 8 40 432
Nghost:    4600.45 ave 5145 max 499 min
Histogram: 16 0 0 13 3 0 16 0 97 367
Neighs:    111617 ave 128500 max 0 min
Histogram: 16 0 0 16 0 0 0 10 148 322

Total # of neighbors = 57148057
Ave neighs/atom = 70.3809
Neighbor list builds = 1
Dangerous builds = 0
reset_timestep 0
unfix    2
#---------------------- DEFINE Laser GERION and GROUP ----------------
region       R1  block -75  75  INF  INF  INF  5  units box
group        G1 region R1
259221 atoms in group G1
group        G2 subtract all G1
552761 atoms in group G2


#define     temperature/pressure calculation  group
variable    x1atom atom "x>=0  &&  x<4 &&  z>-40 && z<1"     ##NEW!!!!!!!!!!!!
variable    x2atom atom "x>=-234.98  &&  x<-230.98 &&  z>-40 && z<1"
variable    x3atom atom "x>=0  &&  x<4 &&  z>-20 && z<1"
variable    x4atom atom "x>=-234.98  &&  x<-230.98 &&  z>-20 && z<1"
variable    x5atom atom "x>=196  &&  x<200 &&  z>-40 && z<1"

group       x1atom variable x1atom
334 atoms in group x1atom
group       x2atom variable x2atom
276 atoms in group x2atom
group       x3atom variable x3atom
176 atoms in group x3atom
group       x4atom variable x4atom
144 atoms in group x4atom
group       x5atom variable x5atom
387 atoms in group x5atom


compute      COM1x x1atom com
compute      COM2x x2atom com
compute      COM3x x3atom com
compute      COM4x x4atom com
compute      COM5x x5atom com

compute      COMall all com

#Temperature profile
#variable      Tprofile atom 300*(1+(step/5000)*2.5*exp(z/40))
#variable tmp equal "lz"
#variable L0 equal ${tmp}
variable      Tprofile atom  300+600*(step/5000)*exp(z/40)*exp(-x*x/1289)


# ------------------------- SETTINGS ---------------------------------
thermo          100
thermo_style    custom step lx pxx pyy pzz temp c_COM1x[1] c_COM1x[2] c_COM1x[3] c_COM2x[1] c_COM2x[2] c_COM2x[3] c_COM3x[1] c_COM3x[2] c_COM3x[3] c_COM4x[1] c_COM4x[2] c_COM4x[3]  c_COM5x[1] c_COM5x[2] c_COM5x[3] c_COMall[1] c_COMall[2] c_COMall[3]

timestep       0.002


compute dispall all displace/atom
# ---------------- Run Laser Material Interaction --------------------
#dump          1 all custom 1000 dump/z1dump.atom id type x y z c_dispall[1]  c_dispall[2]  c_dispall[3] c_dispall[4]
#dump          2 all cfg 100 cfg/*.cfg mass type xs ys zs
#dump_modify   2 element Al

#relax for 2 PS
#fix           1 all nvt temp 300.0 300.0 0.1
#run  1000
#unfix         1

fix           1  all nve
fix           3temp  all  langevin  v_Tprofile  0  0.1  378411   #TEST ALL
run           5000
Memory usage per processor = 2.53347 Mbytes
Step Lx Pxx Pyy Pzz Temp COM1x[1] COM1x[2] COM1x[3] COM2x[1] COM2x[2] COM2x[3] COM3x[1] COM3x[2] COM3x[3] COM4x[1] COM4x[2] COM4x[3] COM5x[1] COM5x[2] COM5x[3] COMall[1 COMall[2 COMall[3 
       0    472.03454   -429.30611   -411.26187   -397.36361    299.64131    2.2623964  -0.78137403    -19.16178   -233.39088  -0.89293422   -19.388328    2.2491559  -0.91602753     -9.22376    -233.3928   -0.8774314   -9.3763657    198.01333   -0.7621259   -19.436367  -0.91025625    -0.907439   -469.90043 
     100    472.03454   -432.85155   -443.15319   -403.91227    299.68361    2.2364399  -0.80092094   -19.180644   -233.39744  -0.90285827    -19.36445    2.2232451  -0.92520355   -9.2426316   -233.39672  -0.87223518   -9.3666984    197.99828  -0.76895551   -19.437081  -0.91031863   -0.9068972   -469.90119 
     200    472.03454   -386.35661   -373.65001   -333.89994     299.9378    2.2544854  -0.80106996   -19.168011   -233.37368  -0.89727092   -19.391149    2.2143878  -0.92264715   -9.2164265   -233.37005  -0.88898023   -9.4151963    197.98935  -0.77624454   -19.412656  -0.91083133  -0.90660527   -469.90159 
     300    472.03454   -378.77375   -390.25065   -364.50298    300.02557    2.2511245  -0.78854155   -19.146304   -233.41258  -0.89769257   -19.393065    2.2240225  -0.90636092   -9.1860877   -233.41702  -0.88685118   -9.3954116    197.99147   -0.7796276   -19.422346  -0.91095704  -0.90657653   -469.90183 
     400    472.03454   -413.32155    -385.0693   -371.68287    299.89187     2.249171  -0.78365873   -19.145942   -233.41766  -0.91225101   -19.384764    2.2086796  -0.88576661   -9.2076163    -233.4225  -0.90692869   -9.3836883    197.99259  -0.77847361   -19.435403  -0.91099919  -0.90618008   -469.90231 
     500    472.03454   -338.37149   -375.73391   -332.25673    300.35259     2.264449  -0.78657938   -19.143416   -233.40703  -0.93482137   -19.405761    2.2510077  -0.87523669    -9.198836   -233.41796  -0.92790251   -9.4291041    197.99758  -0.75577867   -19.440707  -0.91136803  -0.90612458   -469.90209 
     600    472.03454   -395.18426   -371.58435   -353.93026    300.19233    2.2612639  -0.78766162   -19.144952       -233.4   -0.9336683   -19.416607    2.2376758  -0.85846487   -9.1699035   -233.40565  -0.92844014   -9.4390337    198.00128  -0.76561679   -19.444356  -0.91064608  -0.90626611   -469.90166 
     700    472.03454   -362.91431   -366.43295   -368.31211    300.39845    2.2626869  -0.79349695   -19.148897   -233.39875  -0.92880401   -19.399855    2.2484428  -0.86698685   -9.1863362   -233.40547  -0.92178514   -9.4262463       197.99  -0.80136154   -19.432091    -0.910544  -0.90557292    -469.9013 
     800    472.03454   -393.53664   -396.46281   -338.20489    300.46057    2.2684128  -0.81113677   -19.132581   -233.37967  -0.92473989   -19.395482    2.2427666  -0.88543667   -9.1635251   -233.38295  -0.91126374   -9.4091608     197.9917  -0.81185685   -19.413328  -0.91105099  -0.90499386   -469.90091 
     900    472.03454   -378.63627   -387.94841   -368.00191    300.45382    2.2368058   -0.8097555   -19.140118   -233.36945  -0.90211849   -19.393148    2.2286278  -0.87323944   -9.1602561   -233.37531  -0.88423659   -9.3937656    197.99649   -0.7938102   -19.404104  -0.91100231   -0.9051099    -469.9004 
    1000    472.03454    -398.0342   -388.59377   -363.27042    300.89456    2.2436796  -0.80056498   -19.132759   -233.37467  -0.91063783   -19.388136    2.2193239  -0.88002646   -9.1536667   -233.40318  -0.88959035   -9.3712625     198.0061  -0.77572305   -19.411626   -0.9107069  -0.90513781   -469.90076 
    1100    472.03454    -421.1432    -395.9935   -334.67251    300.80478    2.2413946  -0.81166463   -19.148209   -233.37627  -0.90616888   -19.395868    2.2126682  -0.90845025   -9.1625976   -233.41173  -0.89884147   -9.3748174    198.00403  -0.77882048   -19.399776  -0.91076117  -0.90482039   -469.90055 
    1200    472.03454   -398.86007   -393.75806   -364.29004    301.08993    2.2360556  -0.79710994   -19.172111    -233.3794  -0.88458115   -19.418716    2.1953126  -0.87418343   -9.2009726   -233.40179  -0.88029174   -9.4049939    198.01541  -0.77949713   -19.406753  -0.91060274  -0.90497509   -469.90027 
    1300    472.03454   -357.88206   -350.09168   -343.41632    301.12634    2.2481278  -0.79628869   -19.175579   -233.36767  -0.89810903   -19.400742     2.240958  -0.87993361    -9.232892   -233.40196  -0.88930056   -9.3902352    198.00981   -0.7784565     -19.4211    -0.910162  -0.90479425   -469.89965 
    1400    472.03454   -324.37374   -357.50859   -311.60162    300.94789    2.2487235  -0.77907568   -19.175945   -233.37024  -0.90938126   -19.411888    2.2123219  -0.84590879    -9.232785   -233.39507  -0.90426603   -9.4396068    198.00623  -0.77818332   -19.412858  -0.91013118  -0.90428056   -469.89905 
    1500    472.03454   -340.08892   -329.98085   -343.11227    301.18664    2.2236209  -0.77177459   -19.154583   -233.36287  -0.90998598   -19.412573    2.2023901  -0.81931345   -9.2046329   -233.38389   -0.9038916   -9.4124274    198.00407  -0.76476782   -19.420669  -0.91045324   -0.9037341   -469.89881 
    1600    472.03454   -373.47964   -333.98095    -315.2608    301.31329    2.2374163  -0.78152338   -19.149756   -233.36041  -0.91649136   -19.407158    2.1974651  -0.82664408   -9.2015238   -233.37185  -0.90917316   -9.4078318    197.99466  -0.75873659   -19.448887  -0.91109998   -0.9036102   -469.89844 
    1700    472.03454   -386.63873   -383.74186   -374.71909    300.97246    2.2227866  -0.81430137   -19.172588   -233.35285  -0.90720646   -19.393231    2.1659265  -0.88773996   -9.2128173   -233.37537  -0.89453797   -9.3748817    197.98592  -0.74398551   -19.442106   -0.9115717  -0.90426787   -469.89819 
    1800    472.03454    -357.6109   -349.82647   -359.76177    301.44949    2.2404551  -0.80037383   -19.162787    -233.3516  -0.91228911   -19.391605    890827544  -0.86686631   -9.2008786   -233.36516   -0.9010643   -9.3914646     197.9933  -0.76362808   -19.437713  -0.91186067  -0.90415009   -469.89818 
    1900    472.03454   -371.83449   -393.67168   -382.43565    301.28616    2.2397636  -0.78909111   -19.139042   -233.34291  -0.91549923   -19.393894    2.1934033  -0.87950895   -9.1532465   -233.36174  -0.90451055   -9.4018491    197.98264  -0.75436288   -19.435664  -0.91183764  -0.90419024   -469.89848 
    2000    472.03454   -396.13461   -358.62044   -386.73304    301.30979    2.2712343  -0.77756517   -19.140872   -233.33435  -0.91200561   -19.383574     2.251389  -0.87172115   -9.1875344   -233.34698  -0.91459345   -9.3863781    197.99023  -0.77777286   -19.452538  -0.91194518  -0.90423687   -469.89854 
    2100    472.03454   -380.05423   -342.88698   -346.35413    301.77447    2.2631802  -0.78558222    -19.14265   -233.34172  -0.91653375   -19.395822    2.2261281  -0.88839706   -9.1881492   -233.34794   -0.9005005   -9.3898258      197.996  -0.78963109   -19.444607  -0.91251027   -0.9037511   -469.89909 
    2200    472.03454   -359.22768   -369.50177    -372.5855    301.85429     2.253843  -0.79131912   -19.132258   -233.34571  -0.90407918    -19.39116     2.222947   -0.8911568   -9.1848168   -233.35956  -0.88994751   -9.3962539    197.98263   -0.7665761   -19.424944  -0.91291689  -0.90378964   -469.89959 
    2300    472.03454   -337.08951   -333.73629   -329.41641    301.41083    2.2413791  -0.76802995   -19.103889   -233.35695  -0.89244197   -19.378369    2.2261347   -0.8519097   -9.1432753   -233.38317  -0.88286024   -9.3883725    197.97493  -0.75990153   -19.427866  -0.91274407  -0.90376431   -469.89921 
    2400    472.03454   -347.89712    -344.7793   -346.28919    302.18411    2.2641753  -0.76976189   -19.113804   -233.35155  -0.88742986   -19.393139    2.2473536  -0.85633098   -9.1578451   -233.37909  -0.88621184   -9.4123202    197.99605  -0.75398815   -19.428441  -0.91272633  -0.90408875   -469.89909 
    2500    472.03454   -377.84008   -348.41543   -364.37853    301.72526    2.2480827  -0.76198586   -19.129714   -233.35081   -0.8927827   -19.394764    2.2291609  -0.83870149   -9.1636284   -233.37372  -0.88834712   -9.3984079    198.02136  -0.75706165   -19.442184  -0.91277628  -0.90440375   -469.89887 
    2600    472.03454   -364.53679   -310.07033   -370.26688    302.39135    2.2438662  -0.75363829   -19.141532   -233.31798  -0.89608929   -19.397112    2.2146191  -0.83127976    -9.179841    -233.3274  -0.89024001   -9.4111739    198.01071  -0.74618241   -19.442863  -0.91312174  -0.90464769   -469.89876 
    2700    472.03454   -365.08934   -356.16212   -360.03089    302.85044    2.2298452  -0.74233001   -19.149896   -233.31511  -0.92286471   -19.399364    2.2132269   -0.8281366   -9.1936549   -233.31615  -0.91617241   -9.4106131    198.02067   -0.7424006   -19.435304  -0.91312045  -0.90487357   -469.89933 
    2800    472.03454    -343.0122    -319.5464   -325.80681     302.2043    2.2680468  -0.75740952     -19.1773   -233.32317  -0.94894277   -19.392166    2.2384372  -0.82726224    -9.208946   -233.34034  -0.95843415   -9.4105602    198.01662  -0.73939762   -19.435473  -0.91302134  -0.90570412   -469.90042 
    2900    472.03454   -350.53945   -346.05193   -356.74109    301.97637    2.2601447  -0.74134914   -19.177595   -233.31721  -0.94887975   -19.392833    2.2282678  -0.80626971   -9.1998518   -233.33366  -0.97271443   -9.4206212    198.00518  -0.75246158   -19.429568  -0.91265398   -0.9058891   -469.90046 
    3000    472.03454   -357.48818   -314.79514   -320.73996    301.74131    2.2642284  -0.73481143   -19.158123   -233.33734   -0.9543874    -19.40382    2.2571851  -0.79836861   -9.1623512   -233.34507  -0.97766252   -9.4371139    198.00478  -0.75442875   -19.445352  -0.91223125  -0.90583203   -469.90033 
    3100    472.03454   -360.58338   -363.21078   -353.63485    302.09415    2.2736257  -0.78226393   -19.163956   -233.33497  -0.95031406   -19.396609    2.2422803  -0.87031052   -9.1967732    -233.3519  -0.95982552   -9.4162229    198.00845  -0.75100045   -19.424526  -0.91177787  -0.90602039   -469.90034 
    3200    472.03454   -350.69263     -319.361   -336.07127    301.95942    2.2747583  -0.77573121   -19.167766   -233.33856  -0.90649357   -19.394019    2.2561924  -0.85167506   -9.1792469   -233.37062  -0.93561802   -9.4093415     197.9982  -0.75192234   -19.418556  -0.91160099  -0.90600076   -469.90054 
    3300    472.03454   -351.18741    -336.3804   -358.38512    302.04034    2.2752683  -0.75926843   -19.169204   -233.33739    -0.888925   -19.402821    2.2366479  -0.82329853   -9.1648724   -233.36816  -0.93496968    -9.419524    197.97971   -0.7634336   -19.434733  -0.91181834  -0.90634078   -469.90083 
    3400    472.03454   -341.95048   -326.15032   -312.70479    302.55855    2.2746492  -0.76489717   -19.133419   -233.35327  -0.91359632   -19.376804    2.2535151   -0.8153964   -9.1208665    -233.3807  -0.92969018   -9.4030839    197.99047  -0.77448564   -19.465945  -0.91231367  -0.90655303   -469.90054 
    3500    472.03454   -305.43463   -305.73963   -338.53548    303.01594    2.2867388  -0.76457704   -19.164397   -233.34667  -0.90759257   -19.377519    2.2628889  -0.84255717   -9.1559777   -233.37214  -0.91676107   -9.4156229    197.98025  -0.75923136   -19.467306   -0.9122293  -0.90655069   -469.90073 
    3600    472.03454   -329.57665   -306.87974    -315.5616     302.4165    2.2690523  -0.76694745   -19.187584   -233.34894  -0.89466274   -19.361046    2.2315814  -0.82927285   -9.1661396   -233.36796  -0.91899249   -9.4017121    197.98309  -0.75219451    -19.46401  -0.91239591  -0.90658539   -469.90163 
    3700    472.03454    -321.0133   -283.62099   -253.50945    302.85886    2.2620805  -0.78719614    -19.18688   -233.35567  -0.90617801   -19.384484    2.2252192  -0.87808887   -9.1632847   -233.37278  -0.91847909   -9.3992607    197.96347  -0.73551343   -19.481279  -0.91183965  -0.90707527   -469.90197 
    3800    472.03454     -288.396   -284.47806   -274.54425    302.92175    2.2574195  -0.77172624   -19.163715   -233.35546  -0.88428967   -19.375902    2.2068569  -0.86457261   -9.1421558   -233.37773  -0.90411142   -9.3902479    197.97016  -0.72561023   -19.455748  -0.91179151  -0.90734426   -469.90166 
    3900    472.03454   -271.33407    -271.6989   -291.06068    303.39157    2.2577359  -0.76765678   -19.121486   -233.36988  -0.90796481    -19.36866    2.1985816  -0.85504875    -9.072023   -233.39602  -0.91422356   -9.3736117    197.98417  -0.73207486   -19.445896  -0.91203822  -0.90795328   -469.90214 
    4000    472.03454   -292.89892   -285.80497   -300.16981     303.2823    2.2524305  -0.75029408   -19.121745   -233.37282  -0.89753231   -19.375787    2.1930311  -0.82941697   -9.0783196   -233.40054  -0.89643094   -9.3809624     197.9884  -0.74129234   -19.447127  -0.91192425  -0.90795893   -469.90165 
    4100    472.03454    -301.2645   -280.06734   -310.34672     303.2547    2.2357661  -0.74501321   -19.105453   -233.37255  -0.92502703   -19.372115    2.1688768  -0.83081701   -9.0658328    -233.3851  -0.92976597   -9.3896098     197.9673  -0.73325507   -19.421947   -0.9117839  -0.90787686   -469.90112 
    4200    472.03454   -306.04515   -273.65518   -277.34541    303.12967    2.2461972  -0.76787027   -19.081653   -233.37755  -0.92657155   -19.371296    2.2037953  -0.86433468   -9.0527763   -233.40218  -0.93949228   -9.3749741    197.97925   -0.7147447   -19.430935  -0.91135566  -0.90794277   -469.90084 
    4300    472.03454   -272.06828   -265.04655   -252.60389    303.21378    2.2861239  -0.76145501   -19.119449   -233.35319    -0.914784   -19.403103    2.2409563  -0.86000287   -9.1202098   -233.37416  -0.92133134   -9.4149997    197.98001  -0.72014529   -19.434539  -0.91120716  -0.90816019   -469.90133 
    4400    472.03454   -253.25381   -245.55269    -272.3915    303.50054    2.2914403  -0.76297926    -19.13516   -233.34921  -0.89865252   -19.406554    2.2589472  -0.85006752   -9.1798055   -233.36076  -0.89648857   -9.4205813    197.98051   -0.7278391   -19.429762  -0.91099469   -0.9080492   -469.90169 
    4500    472.03454   -244.38166   -243.60249   -240.39384    303.01545    2.3000837  -0.78871436    -19.11855   -233.34632  -0.90398809   -19.407587    2.2464625   -0.9133895   -9.1426636   -233.36637  -0.92669526   -9.4118247    197.98589  -0.72149841   -19.452486  -0.91125533  -0.90826832   -469.90232 
    4600    472.03454   -266.07851   -259.01002   -269.97897    303.55477    2.2917603    -0.785763   -19.120332   -233.34871  -0.91474554    -19.39224     2.253034  -0.91067267   -9.1231238   -233.35346  -0.92708991   -9.3925917    197.99437  -0.75029033   -19.445773  -0.91117372  -0.90858834   -469.90233 
    4700    472.03454   -255.47855   -243.43946   -238.84439     303.0331     2.343467  -0.78936219   -19.084296   -233.35359  -0.92491182   -19.384715     2.335644   -0.9075366   -9.0959673   -233.35082   -0.9423418   -9.3996383    197.98879  -0.74996206    -19.46796  -0.91085505  -0.90941403   -469.90327 
    4800    472.03454   -260.14535   -251.07363   -273.20052    303.06289     2.328405  -0.78798147   -19.149803   -233.35215    -0.899463     -19.3753    2.3228132  -0.87894529   -9.1578909   -233.34039   -0.9230313   -9.3860897    197.99887  -0.75484467   -19.468779  -0.91121158  -0.90949339   -469.90421 
    4900    472.03454   -216.25032   -234.60437   -249.81309    303.95336    2.3386203  -0.78449261   -19.150636   -233.34658  -0.89581837   -19.399905    2.3223824  -0.88788121   -9.1847203   -233.33206  -0.89945204   -9.4126183    197.99789  -0.76127633   -19.484983  -0.91138275    -0.909432    -469.9041 
    5000    472.03454   -256.78954   -232.83104    -248.8625    303.44825    2.3237499  -0.78601041   -19.162471   -233.36185  -0.90386481   -19.402956    2.3020956  -0.89994294   -9.1770893   -233.33906  -0.89714334   -9.4132423     197.9794  -0.74244048   -19.473917  -0.91120804  -0.90911581    -469.9042 
Loop time of 64.6535 on 512 procs for 5000 steps with 811982 atoms

Performance: 13.364 ns/day, 1.796 hours/ns, 77.335 timesteps/s
99.9% CPU use with 512 MPI tasks x no OpenMP threads

MPI task timing breakdown:
Section |  min time  |  avg time  |  max time  |%varavg| %total
---------------------------------------------------------------
Pair    | 17.617     | 40.527     | 45.186     |  76.9 | 62.68
Neigh   | 0.00033569 | 0.097984   | 0.11783    |   7.0 |  0.15
Comm    | 2.2582     | 6.2595     | 18.382     |  92.5 |  9.68
Output  | 0.024219   | 0.052182   | 0.35508    |  23.7 |  0.08
Modify  | 0.04628    | 2.7635     | 3.3445     |  34.0 |  4.27
Other   |            | 14.95      |            |       | 23.13

Nlocal:    1585.9 ave 1809 max 0 min
Histogram: 16 0 0 0 16 0 0 10 15 455
Nghost:    4600.95 ave 5136 max 500 min
Histogram: 16 0 0 13 3 0 16 0 82 382
Neighs:    111632 ave 128074 max 0 min
Histogram: 16 0 0 16 0 0 0 10 112 358

Total # of neighbors = 57155363
Ave neighs/atom = 70.3899
Neighbor list builds = 16
Dangerous builds

var

variable  com1_x equal "c_COM1x[1]"
variable  com1_y equal "c_COM1x[2]"
variable  com1_z equal "c_COM1x[3]"
variable  com2_x equal "c_COM2x[1]"
variable  com2_y equal "c_COM2x[2]"
variable  com2_z equal "c_COM2x[3]"
variable  com3_x equal "c_COM3x[1]"
variable  com3_y equal "c_COM3x[2]"
variable  com3_z equal "c_COM3x[3]"
variable  com4_x equal "c_COM4x[1]"
variable  com4_y equal "c_COM4x[2]"
variable  com4_z equal "c_COM4x[3]"
variable  com5_x equal "c_COM5x[1]"
variable  com5_y equal "c_COM5x[2]"
variable  com5_z equal "c_COM5x[3]"
variable  comall_x equal "c_COMall[1]"
variable  comall_y equal "c_COMall[2]"
variable  comall_z equal "c_COMall[3]"


fix          2 all print 100 "${com1_x}   ${com1_y}   ${com1_z}  ${com2_x}   ${com2_y}   ${com2_z} ${com3_x}   ${com3_y}   ${com3_z} ${com4_x}   ${com4_y}   ${com4_z} ${com5_x}   ${com5_y}   ${com5_z} ${comall_x}   ${comall_y}   ${comall_z}" file COM.data screen no
#-------------------------- Wave Propagation -------------------------
unfix        3temp
run          1000000
Memory usage per processor = 2.53347 Mbytes
Step Lx Pxx Pyy Pzz Temp COM1x[1] COM1x[2] COM1x[3] COM2x[1] COM2x[2] COM2x[3] COM3x[1] COM3x[2] COM3x[3] COM4x[1] COM4x[2] COM4x[3] COM5x[1] COM5x[2] COM5x[3] COMall[1 COMall[2 COMall[3 
    5000    472.03454   -256.78954   -232.83104    -248.8625    303.44825    2.3237499  -0.78601041   -19.162471   -233.36185  -0.90386481   -19.402956    2.3020956  -0.89994294   -9.1770893   -233.33906  -0.89714334   -9.4132423     197.9794  -0.74244048   -19.473917  -0.91120804  -0.90911581    -469.9042 
    5100    472.03454   -279.48374   -241.69867   -258.15466    303.55897    2.2864093  -0.79233023   -19.155588   -233.36062  -0.89693138   -19.385908    2.2664677  -0.89342789   -9.1562408     -233.352  -0.89871389   -9.4000095    197.99169   -0.7118973   -19.471018  -0.91047003  -0.90893633   -469.90404 
    5200    472.03454   -299.65834   -240.20497   -259.57806    303.57463    2.2845434  -0.80041815   -19.152235   -233.37239  -0.88100064   -19.392303    2.2582279  -0.89411608   -9.1649785   -233.36278  -0.88623343   -9.3981261    197.96935  -0.71309472   -19.455061  -0.90973201  -0.90875684   -469.90388 
    5300    472.03454   -299.63725   -284.18053   -296.17475    303.97251    2.2838621  -0.76821423   -19.118467    -233.3583  -0.88413772   -19.391532    2.2467927  -0.87604351   -9.1133082   -233.37036   -0.8771439   -9.4064265    197.97176  -0.70912663   -19.464364    -0.908994  -0.90857736   -469.90371 
    5400    472.03454   -266.13047    -279.1744   -256.80678     303.4932    2.2747413  -0.77764497   -19.052312    -233.3712  -0.89705441   -19.416018    2.2470113  -0.88445415   -9.0302756   -233.38674  -0.87244283   -9.4005477    197.95166  -0.70512029   -19.449033  -0.90825599  -0.90839787   -469.90355 
    5500    472.03454   -292.74709   -286.53023   -302.38427    303.77608    2.2692413  -0.82211025    -19.02741   -233.38813  -0.89259896     -19.4258    2.2325929  -0.89739686   -9.0256661   -233.39106   -0.8807923   -9.3961933    197.97373  -0.68142892   -19.443556  -0.90751797  -0.90821838   -469.90339 
    5600    472.03454   -320.89237   -308.90118   -291.48018    303.87248      2.25115  -0.84312079   -19.009939   -233.37723  -0.86876017   -19.410445    2.2047849  -0.91876704    -8.968452   -233.39964    -0.876058    -9.384614    197.96254   -0.7029897   -19.433297  -0.90677996   -0.9080389   -469.90322 
    5700    472.03454   -299.31012   -279.06021   -295.11989    303.72641     2.269036  -0.86023658   -18.990063   -233.38729  -0.85374663   -19.417183    2.2423238  -0.90949616   -8.9408859   -233.41062  -0.84308939   -9.4062552    197.96645  -0.72824673   -19.413183  -0.90604195  -0.90785941   -469.90306 
    5800    472.03454   -307.98142   -298.15127   -305.12014    303.79677    2.2556376  -0.88374682   -18.968438   -233.38234  -0.81712097   -19.396128    2.2500425   -0.9507982   -8.9088887   -233.38994  -0.79930764   -9.4059799    197.96237  -0.71482866     -19.3897  -0.90530393  -0.90767993    -469.9029 
    5900    472.03454   -303.05981   -277.55676   -286.38728    303.53684    2.2355712  -0.87890411   -18.958394   -233.39371  -0.83157477   -19.406645    2.2132715  -0.96057416   -8.9081374   -233.38915  -0.82688043    -9.423847    197.94154  -0.71036174   -19.382669  -0.90456592  -0.90750044   -469.90274 
    6000    472.03454   -267.99427   -284.82949   -263.17573     303.4238    2.2270848  -0.89171452   -18.951903   -233.38459  -0.82765188   -19.425764    2.1917015  -0.96559411   -8.9156903    -233.3596  -0.82330078   -9.4475019    197.93644  -0.70434415   -19.382046  -0.90382791  -0.90732096   -469.90257 
    6100    472.03454   -290.51196   -263.50764   -260.79713    303.57776     2.209048  -0.91425663   -18.934821   -233.39482   -0.8237966   -19.462849    2.1724259  -0.99110937   -8.8673762   -233.37696   -0.8348552    -9.496799    197.92852  -0.72943397   -19.391685  -0.90308989  -0.90714147   -469.90241 
    6200    472.03454   -243.14358      -244.72   -209.93501     303.4004    2.2466891  -0.90705121   -18.946605   -233.36406  -0.82516639   -19.466343    2.2053589   -0.9741259   -8.8987213   -233.35805  -0.84745588   -9.4754032    197.94612  -0.72230962   -19.388818  -0.90235188  -0.90696199   -469.90225 
    6300    472.03454   -235.86738   -251.40778   -213.55462    303.61075    2.2414615  -0.90379943   -18.929813   -233.38379  -0.82459327   -19.498192    2.2033815  -0.98688182   -8.9043607    -233.3831  -0.84965101   -9.5121258    197.94678   -0.7176753   -19.412153  -0.90161387   -0.9067825   -469.90209 
    6400    472.03454   -189.40814   -237.38052   -196.19713    303.44828    2.2398144   -0.8980246   -18.889204   -233.35048  -0.82495862   -19.520783    2.1829451  -0.98036881   -8.8516153   -233.34602  -0.82455893   -9.5337875    197.92445  -0.72125817   -19.422847  -0.90087585  -0.90660302   -469.90192 
    6500    472.03454    -217.0359   -233.49756   -189.94067    303.80072     2.242643  -0.92040695   -18.912267   -233.35605  -0.84618108   -19.483815    2.1814038   -1.0319118   -8.9096257   -233.36009  -0.85185707   -9.4805253    197.94004  -0.71592488   -19.439398  -0.90013784  -0.90642353   -469.90176 
    6600    472.03454   -221.73717   -229.58286   -193.35534    303.48371    2.2520584  -0.92547917   -18.908748   -233.36749  -0.82252897   -19.493608    2.2248685   -1.0365498   -8.9115556   -233.38231  -0.83190163   -9.5042752    197.91688  -0.73449694   -19.425983  -0.89939983  -0.90624405    -469.9016 
    6700    472.03454   -226.85188   -242.99722   -228.28096    303.64891    2.2530319  -0.90752402   -18.927585   -233.35677  -0.81123414   -19.471652    2.2306353   -1.0048839   -8.9547987   -233.36617  -0.79381518   -9.4797052    197.92544  -0.75866081   -19.432718  -0.89866181  -0.90606456   -469.90143 
    6800    472.03454   -219.51566   -228.23792   -238.69782    303.71113    2.2292803  -0.84999241   -18.907006    -233.3717  -0.79442379   -19.495526    2.2132818  -0.90074388   -8.9266796   -233.39099  -0.77495672   -9.5255122    197.91041  -0.74053324   -19.456429   -0.8979238  -0.90588508   -469.90127 
    6900    472.03454   -231.00655   -233.47719    -231.5055    303.63103     2.238094  -0.84930397   -18.912833   -233.35837  -0.79587077   -19.485984    2.2370336  -0.94399822   -8.9230255   -233.37772  -0.78380367   -9.5276829    197.93709  -0.72928263    -19.45508  -0.89718579  -0.90570559   -469.90111 
    7000    472.03454   -219.91285   -204.20188   -201.57523    303.62087    2.2592987  -0.87301056   -18.935998   -233.36507  -0.77985351   -19.457763    2.2461585  -0.96780666   -8.9430392    -233.3842  -0.77307068   -9.4907852    197.96285  -0.72693793   -19.477762  -0.89644777  -0.90552611   -469.90095 
    7100    472.03454   -235.29962   -213.72948   -200.75746    304.00567    2.2643115  -0.88012163   -18.932481    -233.3569  -0.80120855    -19.44112    2.2613406  -0.98444304   -8.9484194   -233.35671  -0.80650026   -9.4687658    197.95842  -0.71142736   -19.476885  -0.89570976  -0.90534662   -469.90078 
    7200    472.03454   -190.83969    -192.3976   -184.77055     303.0239    2.2629056   -0.9108505   -18.947252   -233.6  -0.82894565   -19.414746    1.9254231  -0.82044095   -8.8612486   -233.35451  -0.83454921   -9.3817939    198.03069  -0.96161323    -18.55318  -0.90437397  -0.90643096   -469.90987 
    7300    472.04924   -161.52458   -156.83795   -86.039728    303.56007    1.9913959  -0.90022405   -18.745562   -233.36701  -0.80264612   -19.412734    1.9500898  -0.80429905    -8.882902   -233.37201  -0.81588702   -9.3982296    198.03053  -0.96424357   -18.539938  -0.90409711  -0.90629533   -469.91007 
    7400    472.04924   -162.45232   -153.83984   -84.697827    303.78104    2.0138151  -0.87385724   -18.768771   -233.34873  -0.79554561   -19.395758    1.9779326  -0.76236522   -8.9144751     -233.344  -0.81653808   -9.3969086    198.02601  -0.96597615   -18.522773  -0.90382024   -0.9061597   -469.91027 
    7500    472.04924   -120.76296   -119.25409   -43.989334    303.66043    1.9816379  -0.87333185   -18.746328    -233.3542  -0.82678044   -19.392235    1.9528366  -0.74233645   -8.8668308   -233.32972  -0.83051639   -9.3949713     198.0261  -0.97657195    -18.54374  -0.90354337  -0.90602406   -469.91047 
    7600    472.04924   -127.46537   -133.60777   -48.797422    303.73939    1.9876675  -0.84154036   -18.745492   -233.36133  -0.82133182   -19.406718     1.943749  -0.72395178   -8.8717547   -233.32617   -0.8196627   -9.4039127    198.02978  -0.99075454   -18.569887   -0.9032665  -0.90588843   -469.91067 
    7700    472.04924   -139.29892   -105.74017   -57.657781    303.86066    1.9865974  -0.82114951   -18.729176   -233.38616  -0.84267055   -19.393592    1.9550443  -0.71491662   -8.8463772   -233.35025  -0.86556033   -9.3748483    198.02925  -0.98499138   -18.587651  -0.90298964   -0.9057528   -469.91087 
    7800    472.04924   -130.77541   -116.42382   -13.955494     303.9176    2.0035301   -0.8341708   -18.725342   -233.39651  -0.85945437   -19.412071    1.9818844  -0.72254593   -8.8248861   -233.38421  -0.85483359   -9.3558774    198.03637  -0.96610888   -18.574417  -0.90271277  -0.90561716   -469.91107 
    7900    472.04924   -92.152207   -101.63937  -0.63243993    303.60012    1.9961434   -0.8513875    -18.74075   -233.37578  -0.85603909   -19.423632    2.0041754  -0.72130005   -8.8606028   -233.35984  -0.87672882    -9.386591    198.06024  -0.96095416   -18.570092   -0.9024359  -0.90548153   -469.91127 
    8000    472.04924    -92.31655   -86.284928   -3.5261859    303.59117    1.9703761  -0.85680593   -18.754474   -233.37835  -0.85898888   -19.419223    1.9594927  -0.72612755   -8.8874894   -233.35951   -0.8609643   -9.3815085    198.06424  -0.93779594   -18.577048  -0.90215904   -0.9053459   -469.91147 
    8100    472.04924   -97.648037   -123.97863    8.3580613    304.07517    1.9589305  -0.86672425   -18.754722   -233.38032  -0.84942783   -19.421935    1.9627828  -0.74608632   -8.8841739   -233.37647  -0.84058733   -9.3915875    198.06571  -0.92125164    -18.57317  -0.90188217  -0.90521026   -469.91167 
    8200    472.04924   -125.79347   -70.123784   -4.8875854    304.02706    1.9675516  -0.86022877    -18.77525   -233.38863  -0.85089003   -19.402294     1.957755  -0.73575325   -8.8974048   -233.39693  -0.80571162   -9.3816998    198.04581  -0.92142791   -18.565121   -0.9016053  -0.90507463   -469.91187 
    8300    472.04924   -72.460898   -76.938709    8.0876796    304.02204    1.9588388  -0.84872376   -18.806691   -233.39297  -0.86354221   -19.401348    1.9254627  -0.73866476   -8.9312772   -233.38639  -0.84811214   -9.3713561    198.05032  -0.92577381   -18.577731  -0.90132844    -0.904939   -469.91207 
    8400    472.04924    -102.9774   -88.471096    18.864902    303.75084    1.9611159  -0.84958924   -18.819453   -233.39289  -0.85689846   -19.419002    1.9230311  -0.73650502   -8.9335694   -233.40606  -0.87244265   -9.3802161    198.05531  -0.93766246   -18.593253  -0.90105157  -0.90480336   -469.91227 
    8500    472.04924   -96.072579   -56.805594     13.72469    303.88579    1.9869153  -0.86099253   -18.804946   -233.42182  -0.85046396    -19.44543    1.9413217  -0.73453163   -8.9122983   -233.4437   -0  -0.86558351   -9.4380218    197.96661  -0.69977277   -19.416378  -0.88537757  -0.90283383   -469.89851 
    8600    472.03454   -82.209734   -88.865197   -44.783756    303.76365    2.2683079  -0.77391418   -19.138509    -233.3271  -0.83338956   -19.429294    2.2186446  -0.87562433   -9.1464018   -233.34237  -0.85741043   -9.4528597      197.978  -0.71436399   -19.415725  -0.88463956  -0.90265434   -469.89834 
    8700    472.03454   -61.594434   -60.092004     3.132027    303.65888    2.2379337  -0.78327555    -19.13569   -233.34391  -0.84654908   -19.437785    2.2232098  -0.87693292   -9.1455811   -233.36411  -0.84865491     -9.45365    197.99215  -0.69934763   -19.441112  -0.88390155  -0.90247486   -469.89818 
    8800    472.03454    -54.06424    -53.79722    36.956515    303.58978    2.2349767  -0.81375104   -19.114762   -233.34061  -0.86246727   -19.428855    2.2151535  -0.89428721   -9.1388455   -233.33496  -0.85835764   -9.4335192     197.9857  -0.72371537   -19.444465  -0.88316353  -0.90229537   -469.89802 
    8900    472.03454   -52.230162   -44.169973    54.165925    303.90841    2.2127225  -0.81770596   -19.137527   -233.32091  -0.90468658   -19.432149    2.1849923  -0.90063532   -9.1658563   -233.30957   -0.8992381   -9.4308748    198.00608  -0.74091493   -19.450282  -0.88242552  -0.90211589   -469.89785 
    9000    472.03454   -7.6525985   -22.363407    53.622243    303.48653    2.1995426  -0.82818602   -19.146623   -233.30991  -0.91251818   -19.436688    2.1604822  -0.90218681   -9.1706167   -233.29409   -0.9052557    -9.445395    198.01281  -0.74878291   -19.401271  -0.88168751   -0.9019364   -469.89769 
    9100    472.03454   -28.007743   -13.792255    69.353039    303.58815    2.2346266  -0.84043679    -19.14451   -233.30596   -0.9135344   -19.476724     2.198981  -0.93739438   -9.1646783   -233.26478   -0.9162774   -9.4671309     198.0177  -0.75076587   -19.409983  -0.88094949  -0.90175691   -469.89753 
    9200    472.03454     4.914608    11.059508     107.4536    303.45695     2.205084   -0.8535091   -19.188608   -233.31325  -0.89848906   -19.470518    2.1719806  -0.95960326   -9.1875704   -233.29204   -0.9057048   -9.4591644    198.03433   -0.7639027   -19.461159  -0.88021148  -0.90157743   -469.89737 
    9300    472.03454   -11.963296    17.797772    89.242905    303.68676    2.1825223  -0.85153059   -19.152437   -233.30429  -0.91834712   -19.485331    2.1354141  -0.97838935   -9.1651388   -233.27978  -0.91455758    -9.474124     198.0547  -0.76588849   -19.456118  -0.87947347  -0.90139794    -469.8972 
    9400    472.03454     6.451669   -21.228888    130.19679    304.01709    2.1809393  -0.83896144   -19.150829   -233.27277  -0.91561782   -19.499619    2.1293575  -0.93537479   -9.1626493   -233.26384  -0.90820141   -9.4705962    198.08654  -0.77227045   -19.486613  -0.87873545  -0.90121846   -469.89704 
    9500    472.03454    30.057525    18.806871    124.76034    303.52142     2.178442  -0.84389262   -19.169327   -233.28486  -0.91592483   -19.522189    2.1306288  -0.91592281   -9.1698996   -233.26907  -0.91354978   -9.5099622    198.10864  -0.77263731   -19.493323  -0.87799744  -0.90103897   -469.89688 
    9600    472.03454    15.488014    9.4906681    136.80535    303.65715    2.1937202  -0.82455494   -19.196458   -233.27556  -0.93322756   -19.541197    2.1374325  -0.91177128   -9.1970542    -233.2901  -0.93151771   -9.5449247    198.10972  -0.79176755   -19.498938  -0.87725943  -0.90085949   -469.89671 
    9700    472.03454    52.168399     53.97203    134.77817    303.65731    2.2210155  -0.81185766   -19.235088   -233.25556  -0.94955401   -19.537201     2.178115  -0.88775503   -9.2644033   -233.26205  -0.95642957   -9.5569857    198.13825  -0.77932723   -19.501471  -0.87652141     -0.90068   -469.89655 
    9800    472.03454    31.836386     43.74111    121.91077    303.59781    2.2414905   -0.7718774   -19.254337   -233.26531   -1.0130832   -19.543479    2.1964379  -0.83785064   -9.3015012   -233.28065   -1.0312233   -9.5438247    198.16781  -0.78660256    -19.51025   -0.8757834  -0.90050052   -469.89639 
    9900    472.03454    39.641144    61.622077     143.0267    303.73649    2.2597636  -0.76819101   -19.300866   -233.23838   -1.0100979   -19.543745    2.2267654  -0.85790785   -9.3590618   -233.27052   -1.0297118   -9.5591426       198.17  -0.78123456   -19.532628  -0.87504539  -0.90032103   -469.89623 
   10000    472.03454    34.448886    57.438476    176.26878    303.85794    2.2692527  -0.76229533   -19.295466   -233.22786   -1.0346454   -19.526064    2.2423232  -0.85626618   -9.3586399   -233.23842   -1.0449354   -9.5277962    198.15493  -0.79223046   -19.550992  -0.87430737  -0.90014155   -469.89606 
   10100    472.03454    56.489492    64.097943    202.87525    303.72743    2.2769209  -0.74997824   -19.335993   -233.21347   -1.0162541   -19.562663    2.2616994  -0.82152981   -9.3735485   -233.22936   -1.0236869   -9.5697537     198.1662  -0.81352145   -19.574859  -0.87356936  -0.89996206    -469.8959 
   10200    472.03454    85.392022    68.014773    180.42512    303.95287    2.2876072  -0.75429459   -19.340697   -233.17423    -1.005642   -19.580241    2.2580449  -0.83567136    -9.368306   -233.16724   -1.0128432   -9.5931002    198.17762   -0.7894992   -19.578761  -0.87283135  -0.89978258   -469.89574 
   10300    472.03454    99.745509    93.722587    211.37317    303.74446     2.293124  -0.74166122   -19.326254   -233.17076  -0.99828131   -19.550276    2.2649126  -0.81920618   -9.3478662   -233.15757   -1.0080863   -9.5641285    198.16913  -0.78873161    -19.58034  -0.87209333  -0.89960309   -469.89558 
   10400    472.03454    85.875429    90.963368    193.53119    303.69382    2.3163643   -0.7829869    -19.32311   -233.20061  -0.99600714    -19.58053    2.3094516  -0.86730938   -9.3512444   -233.16749  -0.97707027   -9.5833819    198.15628  -0.82848138   -19.584119  -0.87135532  -0.89942361   -469.89541 
   10500    472.03454    83.390398    96.083616     213.2514    303.98751    2.3391295  -0.76971841   -19.299548    -233.1723  -0.98336804   -19.596102    2.3171738  -0.85987113   -9.3243565   -233.14841  -0.96588356   -9.5730411    198.15084  -0.85381885   -19.562342  -0.87061731  -0.89924412   -469.89525 
   10600    472.03454     95.61539    97.594326    184.95559    303.76827    2.3373779  -0.78331694     -19.2671   -233.15012  -0.97792441   -19.627603    2.3021421  -0.85680899   -9.2604095   -233.16045  -0.94358347   -9.5917323    198.13122  -0.86781169   -19.538923  -0.86987929  -0.89906464   -469.89509 
   10700    472.03454     101.4002    63.469162     212.4707     303.5847    2.3686793  -0.78751577   -19.254223   -233.15025  -0.95988437   -19.614971    2.3415637  -0.85960031   -9.2397818   -233.14835  -0.93553999   -9.5800632    198.16394  -0.87155763   -19.499405  -0.86914128  -0.89888515   -469.89492 
   10800    472.03454     94.74666    73.825228    228.69848    303.87305    2.3704081  -0.78841359   -19.273544   -233.14115  -0.95096379   -19.598668    2.3414961  -0.85872285   -9.2546133   -233.13252  -0.94664283    -9.594067    198.19147  -0.84107485   -19.477448  -0.86840327  -0.89870566   -469.89476 
   10900    472.03454    89.071946    74.680426    206.53059    304.01997    2.3561885  -0.76731612   -19.278184   -233.13777  -0.93364737    -19.59087    2.3295313  -0.86500067   -9.2717858   -233.13852  -0.95488526   -9.5873321    198.19323  -0.83270802   -19.476148  -0.86766525  -0.89852618    -469.8946 
   11000    472.03454     99.28824    135.67197    246.50087    303.48539    2.3597271  -0.76721184    -19.27967   -233.13387  -0.90841114   -19.590479     2.340052  -0.87969712   -9.2876489    -233.1403  -0.92357617   -9.6060861    198.20035  -0.82211585   -19.481504  -0.86692724  -0.89834669   -469.89444 
   11100    472.03454    126.19783     114.9613    267.19994    303.56023    2.3482602  -0.79052544   -19.265709   -233.13907  -0.93182453   -19.581764    2.3194959   -0.9000086   -9.3027892   -233.13711  -0.93437324   -9.6282994    198.20156  -0.82915754    -19.48441  -0.86618923  -0.89816721   -469.89427 
   11200    472.03454    112.13048    94.9840412.42466.63982    303.81125    2.3325109  -0.78117568   -19.272784   -233.14922  -0.95692041   -19.603046    2.3013547  -0.89134316   -9.2935236   -233.15136   -0.9533349    -9.643134    198.18464  -0.84229336   -19.475026  -0.86545121  -0.89798772   -469.89411 
   11300    472.03454    87.390587    117.65131     245.8449    303.68511     2.302556  -0.78060366   -19.293033    -233.1602  -0.98471901   -19.570812    2.2521849   -0.8772816   -9.3356605   -233.16909  -0.97572809   -9.5996228    198.19733  -0.82333606   -19.481449   -0.8647132  -0.89780824   -469.89395 
   11400    472.03454    132.46505    119.72211    296.37546     303.6635    2.2803473  -0.80364091    -19.30271   -233.17176   -0.9665101   -19.555019    2.2428325  -0.86755999   -9.3331743   -233.15258  -0.97275968   -9.5480577    198.19615  -0.82544523   -19.486389  -0.86397519  -0.89762875   -469.89379 
   11500    472.03454    129.66402     150.7532    292.36368    303.64578    2.2702439  -0.80073579   -19.292634   -233.18336  -0.95910036   -19.535604    2.2213917  -0.88054125   -9.3276497   -233.15442  -0.97761992   -9.5177437    198.16665  -0.83478506   -19.519505  -0.86323717  -0.89744927   -469.89362 
   11600    472.03454    159.65116    137.30036    297.23864    303.73059    2.2631152   -0.8326786   -19.306242    -233.1692   -0.9184425   -19.514184     2.190284  -0.90075974   -9.3524832   -233.14332  -0.91722198   -9.5191577    198.14026  -0.79941348   -19.513769  -0.86249916  -0.89726978   -469.89346 
   11700    472.03454    122.27275    144.30132    317.49549    303.99972    2.2790275  -0.85247764   -19.348502   -233.18581   -0.9277308   -19.512575    2.2384542  -0.88610221   -9.3874103   -233.16704   -0.9356721   -9.5067656    198.12584  -0.77859819   -19.493639  -0.86176115   -0.8970903    -469.8933 
   11800    472.03454    176.32171    144.62067    338.61941    303.95684    2.2527333  -0.83783742   -19.355248   -233.17355  -0.93650465   -19.526209    2.2093857  -0.87846186   -9.3772818   -233.17511  -0.94957905   -9.5165956    198.13641  -0.80053264   -19.479358  -0.86102314  -0.89691081   -469.89313 
   11900    472.03454    202.37918    190.06829    370.65535    303.82113    2.2536395  -0.86866075   -19.363494   -233.16694  -0.94027146   -19.525827    2.2185622  -0.92450259   -9.3822497   -233.16274  -0.94932845   -9.5142352    198.12517  -0.80662201   -19.507776  -0.86028512  -0.89673133   -469.89297 
   12000    472.03454    205.62884    203.25241    392.15921     304.0408    2.2529108  -0.88850798   -19.365513   -233.16289  -0.92826792   -19.492451    2.2041696  -0.98452523   -9.4081738   -233.15153  -0.93067969   -9.4831395    198.14873  -0.83849188    -19.50144  -0.85954711  -0.89655184   -469.89281 
   12100    472.03454    220.28304    203.91108    405.98228    303.94212    2.2628563  -0.87238866   -19.389782   -233.14351  -0.92751061   -19.495547    2.2155238   -0.9772387   -9.4484702   -233.15108  -0.93962647   -9.5112235    198.16134  -0.85116662   -19.506762   -0.8588091  -0.89637236   -469.89265 
   12200    472.03454    232.90324    182.77663    414.22865    303.76718    2.2565553  -0.88893657    -19.37595   -233.13494  -0.92355134   -19.485323    2.2300179   -1.0006039    -9.423899   -233.14353  -0.91414029   -9.4888533    198.15611  -0.83398307    -19.51614  -0.85807108  -0.89619287   -469.89248 
   12300    472.03454    208.74997    212.94343    387.74485    304.04636    2.2625654  -0.90237838   -19.379132   -233.15715  -0.92985174   -19.515096    2.2388447   -1.0120281   -9.3875306   -233.17579  -0.90286606   -9.5440644    198.14533  -0.82526711    -19.49155  -0.85733307  -0.89601339   -469.89232 
   12400    472.03454        211.5    246.39803    435.87687     303.5457    2.2639254  -0.91453012   -19.380529   -233.14405  -0.90757107   -19.471232    2.2419023  -0.99440803    -9.411052   -233.13413  -0.88827837   -9.5005525    198.13358  -0.83929862   -19.482973  -0.85659506   -0.8958339   -469.89216 
   12500    472.03454    244.78703    232.20365    412.76435    303.79618    2.2845885  -0.92595272   -19.401812   -233.13569  -0.92560702    -19.45299    2.2649624   -1.0092951   -9.4200749   -233.10918  -0.89445218   -9.4819017    198.12848  -0.84239573    -19.45455  -0.85585704  -0.89565442     -469.892 
   12600    472.03454    239.38289    205.67326    367.08598    303.90057    2.3223256  -0.90759074   -19.390969   -233.12667  -0.94731078   -19.451865    2.3009948  -0.98380058   -9.4430253   -233.10524  -0.92146662   -9.4799244    198.14064  -0.84642188    -19.46306  -0.85511903  -0.89547493   -469.89183 
   12700    472.03454     218.9438    218.85318    394.29139    303.91739    2.3225574  -0.90374852    -19.39929    -233.1309  -0.96263647   -19.469597    2.3146204  -0.96292522    -9.472338   -233.10373  -0.96013592    -9.482347    198.14674  -0.83289796   -19.463815  -0.85438102  -0.89529544   -469.89167 
   12800    472.03454    220.99694    229.44513    413.63568    304.09536    2.3204443  -0.89646974   -19.416459   -233.12103  -0.98821071   -19.455372    2.3009116    -0.978859   -9.5003428   -233.10723   -0.9949267   -9.4608536    198.14231  -0.82709575   -19.475972    -0.853643  -0.89511596   -469.89151 
   12900    472.03454    261.20601    256.17326    420.67416     303.7372    2.3309175  -0.90590295   -19.401352   -233.11832   -1.0119411   -19.460403    2.3066097    -1.033669   -9.4793504   -233.11803   -1.0260832   -9.4591752    198.13968  -0.79698069   -19.468923  -0.85290499  -0.89493647   -469.89134 
   13000    472.03454     255.1545    271.54757    419.45329     303.7108    2.3284274  -0.94032493   -19.407313   -233.11297   -1.0122211    -19.47289    2.3214746   -1.0459873   -9.4952444   -233.10279   -1.0066937   -9.4569834    198.15378  -0.79200401   -19.460156  -0.85216698  -0.89475699   -469.89118 
   13100    472.03454    246.22929    229.48334    390.76519    303.84749    2.3371614  -0.95278532   -19.389029   -233.13767   -0.9989497   -19.466243    2.3249987   -1.0279568   -9.4321482   -233.13164  -0.99090258    -9.461834    198.15764  -0.81307262   -19.458428  -0.85142896   -0.8945775   -469.89102 
   13200    472.03454    216.67221    232.79643    361.73384     304.1449    2.3391173   -0.9775762   -19.346527   -233.14238   -1.0150943   -19.419465    2.3186292    -1.078648   -9.3661079   -233.11524   -1.0053234   -9.4294946    198.15604  -0.80128854   -19.466702  -0.85069095  -0.89439802   -469.89086 
   13300    472.03454    209.61173    230.59881    378.60724    304.04131    2.3418719  -0.96513981   -19.305143   -233.15374   -1.0197063   -19.426557    2.3245211   -1.0674901   -9.3360616   -233.12714   -1.0327184   -9.4174665    198.15078  -0.81190776   -19.442091  -0.84995294  -0.89421853   -469.89069 
   13400    472.03454    235.09006    261.89572    396.85633    303.46186    2.3518507  -0.97192742   -19.300829   -233.17526   -1.0164956   -19.439708    2.3258135   -1.0562857   -9.3470405   -233.15267   -1.0516783   -9.4494547    198.15501  -0.81822133   -19.423674  -0.84921492  -0.89403905   -469.89053 
   13500    472.03454    211.24943    225.65189    387.22261    303.51267    2.3550104  -0.96833982   -19.315919   -233.19055  -0.98701085   -19.473028    2.3226608   -1.0611424   -9.3445876   -233.15972    -1.028503   -9.4734238    198.16996  -0.83023791   -19.447377  -0.84847691  -0.89385956   -469.89037 
   13600    472.03454    199.71076    231.56382    395.77682    303.91647    2.3531983   -0.9731477    -19.31579   -233.18564  -0.96655325   -19.479551    2.3227226    -1.082587   -9.3411622   -233.14422   -0.9818609   -9.4494283    198.16994  -0.84633501   -19.437181   -0.8477389  -0.89368008    -469.8902 
   13700    472.03454    219.41785    231.48149    368.17991    303.85799    2.3619198  -0.97210518   -19.318967   -233.18736  -0.95525304   -19.476362    2.3447268   -1.0837189   -9.3507482   -233.13537  -0.97972898   -9.4538276    198.15634  -0.83684496   -19.440123  -0.84700088  -0.89350059   -469.89004 
   13800    472.03454    224.62308    235.33795    384.35345    303.83747    2.3557899  -0.95062227   -19.321204   -233.19021  -0.96446331   -19.469997    2.3208369   -1.0607023   -9.3381744    -233.1702  -7953145954   -9.4770651    198.13706  -0.82552335   -19.448841  -0.84626287  -0.89332111   -469.88988 
   13900    472.03454    212.35662    228.96494     375.1944    303.74417    2.3667045  -0.98661815   -19.303986    -233.1798  -0.93641462    -19.48483    2.3260945    -1.084179   -9.3278314   -233.18061  -0.92964199   -9.5036055    198.11915  -0.84090829   -19.466564  -0.84552486  -0.89314162   -469.88972 
   14000    472.03454    214.28446    218.48099    377.45098    303.56357    2.3782666   -1.0062004   -19.304014   -233.17753  -0.91703191   -19.494396    2.3293472   -1.0833236   -9.3140724   -233.18173  -0.91525007   -9.4968003    198.10729  -0.84892207   -19.471021  -0.84478684  -0.89296214   -469.88955 
   14100    472.03454    215.31227    182.57423    367.27727    303.60577    2.3630446   -1.0046329   -19.310326   -233.19071  -0.90860118   -19.484991    2.3162275   -1.0696775   -9.3352141   -233.19131  -0.89323878   -9.5025301    198.11861  -0.83416761   -19.496518  -0.84404883  -0.89278265   -469.88939 
   14200    472.03454    184.96499     187.6173    340.89185    304.19925    2.3549434  -0.96461159    -19.31372   -233.19911  -0.88381355   -19.531934    2.3104134   -1.0226756   -9.3568615   -233.21873  -0.84919005   -9.5536922    198.09334  -0.79369371   -19.513696  -0.84331082  -0.89260317   -469.88923 
   14300    472.03454    180.32886    225.58763    367.75495    303.83297    2.3723382   -0.9508323   -19.316787   -233.20435  -0.87564028   -19.564325    2.3328774   -1.0288153   -9.3909897   -233.21779  -0.85332453   -9.5852126    198.12157  -0.78759806   -19.495794   -0.8425728  -0.89242368   -469.88907 
   14400    472.03454    222.60987     187.5662     350.1738    304.11149    2.3815927  -0.93846847   -19.327813   -233.20744  -0.85863814   -19.596683    2.3548602   -1.0175296   -9.3970474   -233.22179  -0.85407869   -9.6232032    198.10424  -0.80278783   -19.502049  -0.84183479  -0.89224419    -469.8889 
   14500    472.03454    181.59889    221.21231    380.25346    303.99282    2.4033328   -0.9292516   -19.358828   -233.20835   -0.8613139   -19.587801    2.3652532   -1.0085082   -9.4346224   -233.22745   -0.8521417   -9.6172203    198.09437  -0.81055576   -19.532617  -0.84109678  -0.89206471   -469.88874 
   14600    472.03454    231.99584    222.94621     390.1524    303.88657    2.3914092  -0.87793648    -19.35224   -233.19213  -0.89789877   -19.597078    2.3662933  -0.97186642   -9.3895941   -233.21245  -0.91293308   -9.6151562    198.08842  -0.79219095   -19.559707  -0.84035876  -0.89188522   -469.88858 
   14700    472.03454    196.07453    183.86746    352.69096    304.14494    2.4161353   -0.8824936   -19.331623   -233.19344  -0.87337068   -19.599686    2.3916524  -0.95177273   -9.3526345    -233.2072   -0.8755076    -9.627024    198.10193  -0.75595629   -19.577997  -0.83962075  -0.89170574   -469.88841 
   14800    472.03454    204.28937    200.63277    417.82472    303.61919    2.4437143  -0.87696409   -19.334963   -233.19596  -0.85585063   -19.614642    2.4239924  -0.95349966   -9.3526268   -233.19513  -0.87408959   -9.6333973    198.10322  -0.77386037   -19.585482  -0.83888274  -0.89152625   -469.88825 
   14900    472.03454    185.28299    194.64493    336.52244    303.86358    2.4402493   -0.8510215   -19.343234   -233.21078  -0.87383654   -19.586738    2.4376676  -0.93104616   -9.3362339   -233.20731  -0.87979463   -9.6292877    198.09867  -0.76969398   -19.624861  -0.83814472  -0.89134677   -469.88809 
   15000    472.03454    213.93812    182.02686    376.30521    304.14803    2.4398202  -0.83710476   -19.347728   -233.20937  -0.88380517   -19.573446    2.4419561  -0.92105547   -9.3567629   -233.24278  -0.88380461   -9.5953532    198.09591  -0.76784211   -19.627343  -0.83740671  -0.89116728   -469.88793 
   15100    472.03454     155.0158    167.74683    329.74449    304.19672    2.4494367   -0.8244091    -19.36123   -233.20479  -0.88815683   -19.567495    2.4594784  -0.89114776   -9.3966428    -233.2215  -0.87869892   -9.5756479    198.10581  -0.78559938   -19.625298   -0.8366687   38433   -469.89448 
   15200    472.02366    223.22846      222.859    332.31191    304.39108    2.1604349  -0.74490071   -19.163945   -233.22974  -0.85431395   -19.562924     2.173517  -0.77744421   -9.1456337   -233.22461  -0.85667085   -9.5939244     198.0774   -0.9518455   -19.894913  -0.86408428  -0.89625425   -469.89446 
   15300    472.02366    207.87418    201.60565     353.7132    304.57877    2.1748023  -0.75220831   -19.162964     -233.234  -0.85166032   -19.572315    2.1790171   -0.8037123   -9.1356099   -233.20998  -0.85171936    -9.599639    198.06562   -0.9485139   -19.877509  -0.86368284  -0.89612417   -469.89444 
   15400    472.02366    208.72862    200.36239     369.3571    304.07304     2.177727  -0.76474554   -19.170285    -233.2717  -0.86786953   -19.539515    2.1635443  -0.82515383   -9.1291398   -233.24374  -0.83305291   -9.5394359    198.07281  -0.94893859   -19.856682   -0.8632814  -0.89599408   -469.89442 
   15500    472.02366    195.87385    214.78281    320.84524    304.14744    2.1684853  -0.75289498   -19.168759   -233.28841  -0.88629986   -19.531656    2.1628165   -0.8122492   -9.1052637   -233.26896  -0.85173914   -9.5100212    198.05885  -0.94909495   -19.837192  -0.86287996    -0.895864    -469.8944 
   15600    472.02366    140.09274    155.81944    255.78423    304.38147    2.1725829  -0.76387054   -19.147818   -233.32334  -0.91056481   -19.515812    2.1664731  -0.81367651   -9.0633011   -233.32624  -0.89101501   -9.4919223    198.06078  -0.92955101   -19.858159  -0.86247852  -0.89573392   -469.89439 
   15700    472.02366    152.45613    147.16919    278.24806    304.24487    2.1564936  -0.73967218   -19.126823   -233.31182  -0.89909899   -19.516233    2.1485911  -0.80985767   -9.0146492   -233.33148  -0.90151861   -9.5166974    198.07942  -0.94923653   -19.868488  -0.86207708  -0.89560384   -469.89437 
   15800    472.02366    177.39212    189.07816      291.393    303.76977    2.1435981  -0.75240025   -19.178984   -233.31404   -0.9012033   -19.521251    2.1380521  -0.82088252   -9.0572087   -233.33191  -0.89275041   -9.5089886    198.07659  -0.92889931   -19.888817  -0.86167564  -0.89547376   -469.89435 
   15900    472.02366    155.72984    173.70371    284.57454    304.17533    2.1446589  -0.76901336   -19.201498   -233.32812  -0.88610635   -19.510691    2.1331872  -0.83647846   -9.1036475   -233.36267  -0.90915165   -9.5225281    198.07064  -0.91061195   -19.922552   -0.8612742  -0.89534367   -469.89433 
   16000    472.02366    162.94629    186.17558    308.35459     304.1416    2.1719035  -0.78466114   -19.200217   -233.33352  -0.90765685   -19.519885    2.1673534  -0.84732625   -9.1120638   -233.37163  -0.93924438   -9.5351191    198.07208  -0.89761836   -19.894579  -0.86087276  -0.89521359   -469.89431 
   16100    472.02366    159.73339    170.67497    309.47517    304.08024    2.1990198  -0.77028516   -19.214569   -233.34764   -0.8962567   -19.507459    2.1940221  -0.82141595   -9.1346967   -233.35735  -0.91752399   -9.5285498     198.0601  -0.93028241   -19.892024  -0.86047132  -0.89508351    -469.8943 
   16200    472.02366     179.7027    169.01726    329.77531    304.09062    2.2058415  -0.77878378   -19.221309   -233.33035  -0.91875613   -19.505274     2.224819   -0.8192074   -9.1653918   -233.32963  -0.94106985    -9.539549    198.04961  -0.95193936   -19.889695  -0.86006988  -0.89495343   -469.89428 
   16300    472.02366    171.34687    210.17032    311.24568    304.16224    2.1855466  -0.75675628   -19.221772   -233.33794   -0.9048614   -19.488712    2.2019015  -0.80145591   -9.1752923   -233.33102  -0.91817874   -9.5318971    198.03442  -0.97854371   -19.869852  -0.85966843  -0.89482335   -469.89426 
   16400    472.02366    179.62394    184.02146    304.60622    304.17133    2.1696359  -0.75920055   -19.209824   -233.32299  -0.93757278   -19.504481    2.1791953   -0.8193891   -9.1629169   -233.31269   -0.9340452   -9.5309297    198.01067  -0.96553315   -19.886382  -0.85926699  -0.89469327   -469.89424 
   16500    472.02366     184.3076    189.10505    303.98311     304.0401    2.1481714  -0.74744598   -19.206031     -233.312  -0.96635991   -19.493835    2.1346522  -0.81672148   -9.1333251   -233.29662  -0.97347507   -9.5150616     198.0178  -0.96060198    -19.88684  -0.85886555  -0.89456318   -469.89422 
   16600    472.02366    178.72564    167.46562    301.90318    303.85299    2.1478226  -0.71512674   -19.175185   -233.29372  -0.91861371   -19.481154    2.1015852  -0.77517403   -9.1147297   -233.28075  -0.92095983   -9.4910438    198.00408  -0.91894829   -19.906077  -0.85846411   -0.8944331   -469.89421 
   16700    472.02366    165.63706    165.64316    264.46144    304.21908    2.1411033  -0.72991167   -19.212009   -233.27959  -0.88987697   -19.491675    2.1046647  -0.78265172   -9.1555359    -233.2695  -0.88258545   -9.4876271    198.00134   -0.9118747   -19.924446  -0.85806267  -0.89430302   -469.89419 
   16800    472.02366    157.26186    175.00865    290.15064    304.17714    2.1370661  -0.75104364   -19.189661   -233.29617  -0.88484028   -19.463113    2.0987534  -0.80311162   -9.1204184   -233.31763   -0.8541474   -9.4668162    198.01787  -0.90317581   -19.908084  -0.85766123  -0.89417294   -469.89417 
   16900    472.02366    133.19557    140.42319    267.45175    304.44183    2.1414308  -0.73599659   -19.189152   -233.29823  -0.91585983   -19.472994    2.0933728  -0.80367107   -9.1052883   -233.34097  -0.90243842   -9.4896133    198.01617  -0.88822253   -19.893501  -0.85725979  -0.89404286   -469.89415 
   17000    472.02366    145.37103    167.71907    256.28893    304.20556    2.1543408  -0.73289967   -19.183547   -233.28159  -0.90344019   -19.447197    2.1083277  -0.76932404   -9.0787608   -233.31736  -0.88479248   -9.4634073    198.01875  -0.89248048   -19.863367  -0.85685835  -0.89391277   -469.89413 
   17100    472.02366    158.72679    177.48021    245.51348    304.08328    2.1286848  -0.71581154   -19.151349   -233.27474  -0.89849951   -19.460292    2.1067434  -0.74560121   -9.0570703   -233.31338  -0.91408264   -9.4608824    197.99632  -0.92087703    -19.85391  -0.85645691  -0.89378269   -469.89412 
   17200    472.02366    144.46725    152.80445    262.22816    303.97494    2.1336252  -0.74923438   -19.143863   -233.26821  -0.91377118   -19.485323    2.1310666  -0.79950698   -9.0655692   -233.29736  -0.93616603   -9.4775827    197.99714  -0.95162126   -19.835116  -0.85605547  -0.89365261    -469.8941 
   17300    472.02366    154.50379    134.78394    236.41725    304.06072    2.1323499  -0.74170516   -19.120211   -233.25378  -0.91533794   -19.470474    2.1133509  -0.79950398     -9.05359   -233.26133  -0.92310064   -9.4811654    197.98954  -0.96949563     -19.8381  -0.85565403  -0.89352253   -469.89408 
   17400    472.02366     125.6741    154.74586    239.39516    304.02649    2.1290956  -0.71999472   -19.124276   -233.25546  -0.91782132   -19.481668    2.1218503  -0.79385754   -9.0486961   -233.25189  -0.90271892   -9.4844958    197.99857  -0.97403932   -19.830934  -0.85525259  -0.89339245   -469.89406 
   17500    472.02366    139.55407    145.12201    233.99186    303.66153    2.1373215  -0.70911778    -19.13387   -233.25477  -0.94113146   -19.505945    2.1107513  -0.76916441   -9.0785485    -233.2338  -0.92389818   -9.5010246    198.01348  -0.95076454   -19.838253  -0.85485115  -0.89326236   -469.89404 
   17600    472.02366    139.37735     170.8707    221.67044    304.06963    2.1511332  -0.69211237   -19.126716   -233.24917  -0.92635658   -19.525596    2.1251766  -0.73722694   -9.0894615   -233.22424  -0.91212603   -9.5173177    198.04697   -0.9805536   -19.825225  -0.85444971  -0.89313228   -469.89403 
   17700    472.02366    147.78972    149.52948     257.2077    303.93976    2.1432356  -0.70577009   -19.141056   -233.23998  -0.90043309   -19.514911    2.1080845  -0.75733792   -9.1198022   -233.20029  -0.87134776   -9.5359162    198.05442  -0.98451489   -19.803982  -0.85404827   -0.8930022   -469.89401 
   17800    472.02366     141.9546    151.75139    242.32678    303.94244     2.145428  -0.73407705   -19.126154   -233.24914  -0.93596792    -   -19.516097    2.3624764  -0.91453704   -9.3135082   -233.23485   -0.9704982   -9.5298528    198.08149  -0.77467693   -19.503546  -0.81674234   -0.8861417   -469.88337 
   17900    472.03454    119.73371    97.435243    232.34245    303.46879     2.388865  -0.82905027   -19.261688   -233.24071  -0.96298878   -19.517322    2.3923103  -0.94317386   -9.3115164   -233.24326  -0.96080352   -9.5429167    198.06461  -0.78793774   -19.492159  -0.81600432  -0.88596221   -469.88321 
   18000    472.03454    43.992073      67.5738    198.02922    304.03667    2.4012291  -0.81895697   -19.237311   -233.22402  -0.95473391   -19.522948    2.4106837   -0.8964029   -9.2721947   -233.22742  -0.95010856   -9.5341342    198.07255  -0.78013205   -19.466508  -0.81526631  -0.88578272   -469.88304 
   18100    472.03454    74.429874    39.560583    195.10177    304.05974    2.3837913  -0.79630162    -19.23599   -233.19816  -0.98459289   -19.518701    2.3875261  -0.87837234   -9.2714836   -233.18784  -0.96673222   -9.5108442    198.05044  -0.79967303   -19.440153   -0.8145283  -0.88560324   -469.88288 
   18200    472.03454    75.811672    40.255059    198.99845    303.52243     2.379664  -0.77668867   -19.237436   -233.19574  -0.99908649   -19.511811    2.3805796  -0.85098271   -9.2988745   -233.18263   -1.0039296   -9.5090497    198.01948  -0.79174089   -19.428683  -0.81379028  -0.88542375   -469.88272 
   18300    472.03454    49.985114    28.498966    156.67583     304.0045    2.4007507  -0.75456589   -19.239394   -233.22071  -0.97140986   -19.486804    2.4019191  -0.83780578   -9.3012658   -233.21256  -0.98004206   -9.5238148    198.03222  -0.79831593   -19.403096  -0.81305227  -0.88524427   -469.88256 
   18400    472.03454    39.261025    51.128748    165.95239    303.72785     2.379405  -0.73434835   -19.224706   -233.22712  -0.95074398    -19.48392     2.396521  -0.80974819   -9.2853504    -233.2218  -0.96657658   -9.5027654    198.03671  -0.81221673   -19.363305  -0.81231426  -0.88506478   -469.88239 
   18500    472.03454    25.446983    27.143275    127.03201    304.02128    2.3751252  -0.74078491   -19.244319   -233.20494  -0.93976465   -19.487073    2.3923462  -0.80100836   -9.3029077   -233.18229  -0.97147359   -9.5161471    198.06039  -0.81208454   -19.370638  -0.81157624   -0.8848853   -469.88223 
   18600    472.03454   0.92010682    26.285977    150.05321    303.60163    2.3776089  -0.75530346   -19.248733   -233.24954  -0.92759702   -19.475797    2.3605605  -0.80286304   -9.3131557   -233.21312  -0.97434801   -9.4896976    198.07711  -0.80874959   -19.375507  -0.81083823  -0.88470581   -469.88207 
   18700    472.03454   -16.159099     9.943459    87.648089    304.16157    2.3748429  -0.76974778   -19.224173   -233.26153  -0.90065571   -19.457554    2.3406105  -0.83636216   -9.2817566   -233.23302  -0.91976315   -9.4887725    198.07549  -0.81275193   -19.357619  -0.81010022  -0.88452633    -469.8819 
   18800    472.03454   -25.338085   -20.374853    79.972693    303.94314    2.3734734  -0.79231164   -19.203729   -233.24557  -0.87637561   -19.456246    2.3351139  -0.87188131    -9.272951   -233.22675  -0.87962529   -9.4817659    198.07986  -0.83686329   -19.366615   -0.8093622  -0.88434684   -469.88174 
   18900    472.03454   -51.941443   -19.775718    73.317876    303.59472    2.3724132  -0.84347094   -19.198642   -233.22662  -0.85406543    -19.44233    2.3345281  -0.93179083   -9.2484282   -233.20695   -0.8142743   -9.4485695    198.07956  -0.82689272   -19.377624  -0.80862419  -0.88416736   -469.88158 
   19000    472.03454    -64.80064   -7.3148233     47.90403    303.65359    2.3848488  -0.83552187   -19.174143   -233.21211  -0.86585467   -19.418368      2.35322  -0.94140217   -9.2315541   -233.20381  -0.83546992   -9.4491123    198.07547  -0.78577598   -19.380455  -0.80788618  -0.88398787   -469.88142 
   19100    472.03454   -28.720341   -51.431771    22.041452    303.88069    2.3684255  -0.81320485   -19.169214   -233.21046  -0.83653966    -19.38869    2.3423816  -0.92247512   -9.2248909   -233.21593  -0.8081  -9.4580815    198.09208  -0.97523605   -19.760513  -0.84842811  -0.89118105   -469.89376 
   19200    472.02366    73.573837    99.059889    146.49539    304.14587    2.1514663  -0.78481852   -18.978029    -233.2615  -0.89332586   -19.425498    2.1130719  -0.85811913   -8.9376542   -233.29484  -0.86298946   -9.4658571    198.10906  -0.97245348   -19.745657  -0.84802667  -0.89105097   -469.89374 
   19300    472.02366    95.313899    105.61956     157.3075    303.72641    2.1371198  -0.80576264   -18.948126   -233.26198  -0.89525242   -19.396411    2.1148848  -0.86570166   -8.8873863   -233.29002  -0.88076909   -9.4532244    198.12569  -0.98092291   -19.746954  -0.84762523  -0.89092089   -469.89372 
   19400    472.02366    60.068898    110.26784    148.59379    303.78645    2.1264678  -0.78845626   -18.950597   -233.26786  -0.90082903   -19.394375    2.1029207  -0.86077366   -8.8925004   -233.28035  -0.90770177   -9.4418387    198.11149  -0.97198165   -19.748965  -0.84722379  -0.89079081    -469.8937 
   19500    472.02366    46.878765    51.768519    116.38526    304.16082    2.1502796  -0.79256648   -18.944864   -233.25048  -0.88458779   -19.401589    2.1471557  -0.86801096   -8.9030259   -233.25069  -0.92524331   -9.4141144    198.11035  -0.97038084   -19.752204  -0.84682235  -0.89066073   -469.89369 
   19600    472.02366    9.7942566    48.305546     104.7674    304.06831    2.1811271   -0.8038747   -18.951405   -233.24879  -0.87676244   -19.381602    2.1795778  -0.86982332   -8.9034864    -233.2209  -0.91164606   -9.3743653    198.12422  -0.95292259   -19.747411  -0.84642091  -0.89053064   -469.89367 
   19700    472.02366    20.237826    37.493362    81.534061    303.86473    2.1873516  -0.80981468   -18.961868   -233.23198  -0.86183729    -19.34785    2.2043727  -0.87767085   -8.8909646   -233.21034  -0.85474109   -9.3242014    198.14202  -0.92455066   -19.770228  -0.84601947  -0.89040056   -469.89365 
   19800    472.02366     19.08999    20.468721    73.144911    303.79971    2.1799248  -0.81974812   -18.972588   -233.22614  -0.87155672    -19.36081    2.2054573  -0.87474625   -8.9127905   -233.18665  -0.84737339   -9.3314191    198.17083  -0.92692484   -19.768547  -0.84561802  -0.89027048   -469.89363 
   19900    472.02366  -0.34238914    22.889453     31.68473    304.24443    2.2020402  -0.79629668   -18.975451   -233.22186  -0.87807124   -19.367529    2.2076207  -0.83892004    -8.902033   -233.19019  -0.86125511   -9.3461291    198.15977  -0.92643522   -19.767403  -0.84521658   -0.8901404   -469.89361 
   20000    472.02366   -20.178958    20.074225    66.716654    304.07587    2.1903217  -0.76212118   -18.961807   -233.23527  -0.87354078   -19.363431    2.1930813  -0.81141083   -8.9077481   -233.21165  -0.87518098   -9.3358544    198.15987   -0.9295652   -19.760409  -0.84481514  -0.89001032    -469.8936 
   20100    472.02366   -23.009231    17.871783    57.279713    303.93591    2.1817952  -0.77279318   -18.961407   -233.22271  -0.87466686   -19.375669    2.1705924  -0.82581216   -8.9406267   -233.21085  -0.89789411   -9.3628164    198.16799  -0.90985669    -19.74259   -0.8444137  -0.88988024   -469.89358 
   20200    472.02366    4.5283182    35.556682     71.13773    303.81887    2.1739654  -0.75761761   -18.946064   -233.23816  -0.85790659   -19.353675    2.1640191  -0.80683536   -8.8921034   -233.23887  -0.86703218   -9.3626396    198.17127  -0.91454015   -19.725253  -0.84401226  -0.88975015   -469.89356 
   20300    472.02366   -24.513813    10.966118    20.046226    303.89467    2.2029533  -0.75942142   -18.935261   -233.23424  -0.84206035   -19.351996    2.1885574   -0.7999174   -8.8676082   -233.24627  -0.84596209   -9.3788168    198.18569  -0.91592134   -19.702883  -0.84361082  -0.88962007   -469.89354 
   20400    472.02366   -34.464447   -21.293408    6.8724502    304.03813    2.1895475  -0.76492219   -18.931799   -233.23172  -0.82683159   -19.352413    2.1680416  -0.78197349   -8.8416973   -233.23501  -0.83810939   -9.3844517    198.17499   -0.8962211   -19.717838  -0.84320938  -0.88948999    -469.93624 
   20500    472.04924   -224.45313   -242.56558   -187.27768    303.96558    2.1402024  -0.82026894   -18.830723   -233.22133  -0.96422426   -19.490196    2.1011182  -0.67864379   -8.9900596   -233.22278  -0.96723279   -9.4709672    198.11837   -1.0660043   -18.569326  -0.86755068  -0.88839175   -469.93644 
   20600    472.04924   -234.95399   -224.49006   -168.54511    303.62707    2.1419235   -0.8322887   -18.823804   -233.21536  -0.96371498   -19.501046     2.088642  -0.69531914   -8.9713289   -233.22124  -0.98233598   -9.4655009    198.12953   -1.0490604    -18.56823  -0.86727381  -0.88825612   -469.93664 
   20700    472.04924   -277.26245   -260.63943    -194.1919    304.06303    2.1361559  -0.85205051   -18.824249   -233.20787  -0.95781421   -19.536955    2.0976391  -0.73913289   -8.9612257   -233.22095  -0.96792767    -9.494661    198.13006   -1.0412848   -18.552329  -0.86699694  -0.88812049   -469.93684 
   20800    472.04924   -265.90352   -261.92591   -223.80421    303.83828    2.1297517  -0.84711418   -18.841487   -233.23646   -0.9238845   -19.516217    2.0914637   -0.7517963   -8.9939079   -233.23645  -0.93167204   -9.4805854    198.14681   -1.0241968   -18.571578  -0.86672008  -0.88798486   -469.93704 
   20900    472.04924   -281.05422   -261.74505   -221.81138    304.06608    2.1097907   -0.8530857   -18.851936   -233.21905  -0.93812717   -19.481317    2.0712781  -0.76691145   -8.9937515   -233.20427  -0.94402584   -9.4531046    198.15949   -1.0163947   -18.595691  -0.86644321  -0.88784922   -469.93724 
   21000    472.04924   -238.04386   -244.45218   -214.90047    303.74026    2.0983953  -0.87399835   -18.871171   -233.23684  -0.93825849   -19.477964    2.0731361  -0.77560624   -9.0365413   -233.21807  -0.94615756   -9.4386435     198.1504   -1.0289639   -18.598943  -0.86616634  -0.88771359   -469.93744 
   21100    472.04924   -284.00968   -228.85509   -214.90676    303.80232    2.1122714  -0.88974569   -18.885169   -233.22028  -0.96832502   -19.487356    2.0730846  -0.77887642   -9.0595087   -233.19349  -0.95330862    -9.455072    198.16923   -1.0326235   -18.589305  -0.86588948  -0.88757796   -469.93764 
   21200    472.04924   -270.39375   -251.93958   -193.59724    303.51519    2.0885874  -0.88934826   -18.845874   -233.22187   -0.9802968   -19.491743    2.0520736  -0.77944171   -9.0263891   -233.21059  -0.97386078   -9.4486755    198.17288   -1.0150105   -18.609237  -0.86561261  -0.88744232   -469.93784 
   21300    472.04924   -275.33513   -239.85065   -239.85973    303.97265    2.0732824  -0.90802504   -18.831802   -233.23641  -0.97179739   -19.532975    2.0354622  -0.79413643   -9.0085814   -233.21769  -0.98552906   -9.4972439    198.17982   -1.0186882   -18.621299  -0.86533574  -0.88730669   -469.93804 
   21400    472.04924   -265.46267   -251.76817   -249.90486    304.18334    2.0606377  -0.91971909   -18.839498   -233.25502  -0.93159696   -19.513336     2.026306  -0.80827495   -9.0192607   -233.23955  -0.95036274   -9.4911287    198.18645   -1.0479372   -18.650019  -0.86505888  -0.88717106   -469.93824 
   21500    472.04924   -271.66957   -235.77548   -208.24314     303.7268    2.0208513  -0.95070007   -18.866474   -233.25567   -0.8994941   -19.508866    1.9889535  -0.85585431   -9.0458508   -233.23914  -0.91760831   -9.4823528    198.18656   -1.0565927   -18.666502  -0.86478201  -0.88703542   -469.93844 
   21600    472.04924     -257.422   -240.34211   -195.89601    303.81781    1.9968149  -0.91208592   -18.861251   -233.24811   -0.9153578   -19.526229    1.9830019  -0.82967627   -9.0457751   -233.25742  -0.93017727   -9.5208669    198.17523   -1.0543916   -18.681622  -0.86450514  -0.88689979   -469.93864 
   21700    472.04924   -252.97937   -206.06966   -177.35644    303.81684     1.978238  -0.88818449   -18.877976   -233.25106  -0.92063756   -19.556473    1.9685843  -0.80485802   -9.0827843   -233.27418  -0.92054136   -9.5674518    198.15735   -1.0449014   -18.683053  -0.86422827  -0.88676416   -469.93884 
   21800    472.04924   -261.47838   -234.01926   -175.59379    304.323.53038     2.225786  -0.78818482   -19.230192   -233.18916  -0.84541436   -19.328808    2.1678624  -0.90297693    -9.299244   -233.19866    -0.846489   -9.3270101    198.10443   -0.7080827   -19.282657   -0.7872218  -0.87896228   -469.87686 
   21900    472.03454   -260.89891   -274.31541   -224.96733    303.62338    2.2088236  -0.79986012   -19.244053   -233.19383  -0.82340683   -19.328602    2.1453629  -0.90095963   -9.3248535   -233.19155  -0.85126338   -9.3136915      198.084  -0.70992733   -19.274768  -0.78648379   -0.8787828    -469.8767 
   22000    472.03454   -278.91757   -251.01313    -228.2132    303.35177    2.1953645  -0.76349303   -19.227384   -233.20857  -0.85804224   -19.279064     2.172381    -0.845838   -9.3092623    -233.2082  -0.85888614   -9.2889483    198.06246  -0.72071032   -19.278321  -0.78574578  -0.87860331   -469.87653 
   22100    472.03454   -303.87596   -310.01513   -286.54668    303.97302      2.20104  -0.79426566   -19.207786   -233.21418  -0.84868403   -19.257318    2.1890517  -0.85782828   -9.2697943   -233.21965  -0.85532553   -9.2670224    198.05693  -0.72719153   -19.279905  -0.78500776  -0.87842383   -469.87637 
   22200    472.03454   -288.25679   -260.25219   -287.26195     303.5816    2.1847523  -0.82233546   -19.214274   -233.21312  -0.83937962   -19.263617    2.1730366  -0.88751807   -9.3005453   -233.24229   -0.8508034   -9.2645525    198.04916   -0.7125072   -19.281806  -0.78426975  -0.87824434   -469.87621 
   22300    472.03454   -272.33456   -304.83315   -268.13645    303.39639    2.1907736  -0.82563919   -19.218319     -233.231  -0.82517622    -19.29016    2.1800772  -0.87252454   -9.3102242   -233.22489  -0.82358071   -9.2704741    198.07444  -0.72045355   -19.272776  -0.78353174  -0.87806486   -469.87605 
   22400    472.03454    -314.6765   -306.84935   -300.00052    303.42593    2.2017181  -0.83558796   -19.204075   -233.22984  -0.82157473   -19.296468    2.2043418  -0.90612653    -9.257281   -233.22938  -0.81142081   -9.2800148    198.07495  -0.72503423   -19.282793  -0.78279372  -0.87788537   -469.87588 
[...]
  999000    472.04924   -292.30346    -272.7539   -262.32817    303.93194    4.7282688   0.38713795   -20.991845    -230.5789   0.31422286   -21.406323    4.7278123   0.49136344   -11.184121   -230.56436   0.30159824   -11.362649    200.85288   0.24354081   -20.420324    1.8415917   0.43877845   -471.89117 
  999100    472.04924   -290.85696   -296.96129   -257.11689    303.76394    4.7254425    0.3998758   -20.968096   -230.56024   0.30139901   -21.384448    4.7156232   0.48123492    -11.15639   -230.54604   0.28871493   -11.362249    200.83385    0.2485262   -20.448586    1.8418686   0.43891408   -471.89137 
  999200    472.04924   -327.28432    -282.5881   -269.96883    303.97606    4.7375626   0.38382796   -20.959046   -230.54742   0.30846478   -21.373215     4.720477   0.47782706   -11.129325   -230.51032    0.2845689   -11.334274    200.81748   0.24817694   -20.471982    1.8421455   0.43904972   -471.89157 
  999300    472.04924   -323.41991   -281.37633   -269.57955     303.9864    4.7175298   0.37340452    -20.96018   -230.50978   0.32705594   -21.355061    4.6886184   0.46936018   -11.134475   -230.48314    0.3084964    -11.34078     200.8179   0.23853948   -20.477307    1.8424223   0.43918535   -471.89177 
  999400    472.04924   -303.86197   -268.08213   -258.08715    303.52887    4.7330381   0.36687384   -20.949301   -230.50867   0.32480945   -21.364449    4.6973335   0.46945134   -11.111988   -230.48916   0.32571752   -11.343092    200.83496   0.22476783   -20.474676    1.8426992   0.43932098   -471.89197 
  999500    472.04924   -335.88122   -288.14985   -259.39103    303.98046    4.7469347   0.37549377   -20.933618   -230.50816    0.3340568   -21.354771    4.7074116   0.47328443   -11.091111   -230.48809   0.33812423   -11.320313    200.85054   0.23797976   -20.454273    1.8429761   0.43945662   -471.89217 
  999600    472.04924   -328.60288   -321.33091   -291.89519    303.54274    4.7284488   0.35978917   -20.926876   -230.52012   0.36309255    -21.33376    4.6886735   0.45566657   -11.106616   -230.49526   0.34083085   -11.289604    200.84311    0.2508619   -20.444308    1.8432529   0.43959225   -471.89237 
  999700    472.04924   -346.96281   -301.16878   -315.12829    303.75968     4.751822   0.36071401   -20.913902   -230.54132    0.3757068    -21.31263    4.7146614   0.46652413   -11.084087   -230.52139   0.34536953   -11.286245    200.82914   0.23366239   -20.447556    1.8435298   0.43972788   -471.89257 
  999800    472.04924   -344.87434   -311.16114   -328.02365    303.90599    4.7766822   0.36744074   -20.915166   -230.53654   0.38886912   -21.336998    4.7587167   0.48349052   -11.077849   -230.52922   0.39392542   -11.307532    200.83747   0.21562379   -20.467145    1.8438067   0.43986352   -471.89277 
  999900    472.04924   -342.97592   -299.63175   -281.92326    303.55997    4.8020179   0.36050614   -20.905083   -230.51546   0.42742035   -21.350018     4.796986   0.47515147   -11.065664   -230.51935   0.45311934   -11.325269    200.83477   0.23853576   -20.467949    1.8440835   0.43999915   -471.89297 
 1000000    472.04924    -335.2993    -312.4104   -277.81506    303.69559    4.8137906    0.3686514   -20.888545   -230.51091   0.40944052   -21.376515    4.8180863   0.48953555   -11.052804    -230.5117   0.44904768   -11.356521    200.85109   0.25726876   -20.459804    1.8443604   0.44013478   -471.89317 
 1000100    472.04924   -326.38578   -324.30336   -298.46462    303.77656    4.8117843   0.38369072   -20.872204   -230.52272   0.41309204   -21.388324    4.8023764   0.51410452    -11.03671   -230.51477   0.42187512   -11.361047    200.84972   0.27864247   -20.456445    1.8446373   0.44027041   -471.89337 
 1000200    472.04924   -364.47485   -320.93363   -309.16634    304.17838    4.8429696   0.42007253   -20.882474   -230.53355   0.41149526   -21.401441    4.8610368   0.54992566   -11.052402   -230.50291   0.39500504   -11.385241    200.85819   0.31112691   -20.480121    1.8449141   0.44040605   -471.89357 
 1000300    472.04924   -317.33088   -341.17932   -324.79235    303.78637    4.8621247   0.42786167    -20.85774   -230.54194   0.45609469    -21.40424    4.8915567    0.5450821   -11.064097   -230.52669   0.43081748   -11.399566    200.85551   0.33283312   -20.472223     1.845191   0.44054168   -471.89377 
 1000400    472.04924   -328.21178   -311.14448   -261.06984    303.78678    4.8586845   0.44208516   -20.868494   -230.55108   0.45614717   -21.386576    4.8676553    0.5649377   -11.058277   -230.54855   0.44509824   -11.381705    200.85465   0.32543036   -20.465552    1.8454679   0.44067731   -471.89397 
 1000500    472.04924   -327.02235    -305.5266    -292.1434    303.57995    4.8736292   0.44997436   -20.879279   -230.54903   0.43269254   -21.385395    4.8958951   0.55176208   -11.074615    -230.5418   0.42538846   -11.393834    200.85462   0.32421828   -20.476871    1.8457447   0.44081295   -471.89417 
 1000600    472.04924   -356.05251   -344.36476   -299.42325    303.89072    4.8637939   0.45913733   -20.897128   -230.54919   0.44148215   -21.385948    4.8810516   0.55561119   -11.094696   -230.55762   0.44816454    -11.37461     200.8626   0.34078741   -20.467231    1.8460216   0.44094858   -471.89437 
 1000700    472.04924   -333.28262   -321.84528    -323.2485    303.68166    4.8726489   0.45448798   -20.888579   -230.54405   0.45503083   -21.385808    4.8717027   0.56655921   -11.071469   -230.54663    0.4535066   -11.358695    200.83446   0.32886302   -20.464126    1.8462985   0.44108421   -471.89457 
 1000800    472.04924   -378.51227   -354.78793   -316.19388    303.67798     4.865904   0.46016107   -20.910036   -230.55622   0.45923476   -21.366024    4.8412299   0.57049821   -11.097234   -230.57353   0.45267232    -11.30728     200.8279   0.32593126   -20.471247    1.8465753   0.44121985   -471.89477 
 1000900    472.04924    -347.1209   -334.61254   -317.60362     303.3245    4.8396721   0.47907015   -20.916621   -230.56334   0.45548929   -21.358546    4.8099118   0.60583084   -11.101172   -230.58879   0.47125238   -11.308313    200.83008    0.3181707   -20.454338    1.8468522   0.44135548   -471.89497 
 1001000    472.04924   -330.44957   -359.27597    -299.4624    303.52002    4.8418816    0.4587162   -20.911156   -230.55933   0.45379442   -21.384386     4.806717   0.58567917   -11.085943   -230.57116   0.45568537   -11.337239    200.82189   0.32223169   -20.468802    1.8471291   0.44149111   -471.89517 
 1001100    472.04924   -352.38207   -365.72804   -316.50835    303.52005    4.8384485   0.45656341   -20.870914   -230.55648   0.43756268   -21.366468    4.7937897   0.59180321   -11.055992   -230.57197   0.46931606    -11.32806    200.80704   0.31785966   -20.497441    1.8474059   0.44162675   -471.89537 
 1001200    472.04924   -380.18428   -374.97514   -349.66465    304.00618     4.832229   0.48504984   -20.866634   -230.54816   0.40743958   -21.389794    4.7989684   0.59832955   -11.041868   -230.55256    0.4298794   -11.379943    200.80716   0.28622685   -20.520221    1.8476828   0.44176238   -471.89557 
 1001300    472.04924   -345.49978   -327.89706   -321.99527    303.33389    4.8193151   0.49100926    -20.89883   -230.56119   0.38550846   -21.412152    4.7771306    0.6047637   -11.062678   -230.55814   0.39250383   -11.406829    200.81863    0.2858442   -20.524201    1.8479597   0.44189801   -471.89577 
 1001400    472.04924   -371.80139   -328.64918   -325.06828    303.79529    4.7985565   0.48670797   -20.927771   -230.55633   0.38365783   -21.395918    4.7719745   0.57522561   -11.105176   -230.54386   0.35886264   -11.409956    200.82215   0.29954084   -20.542789    1.8482365   0.44203365   -471.89597 
 1001500    472.04924   -319.43723   -358.62949   -309.75605    303.54073    4.7611388   0.50018359   -20.919584   -230.55346   0.36421698   -21.409138    4.7297732   0.57960125   -11.096117   -230.54658   0.32058283   -11.403027     200.8032   0.28313805   -20.534128    1.8485134   0.44216928   -471.89617 
 1001600    472.04924   -345.03507   -343.22499   -301.80807    303.76892    4.7384679   0.50573416   -20.923608    -230.5475    0.3582793   -21.379333    4.7133566   0.59400829   -11.101021   -230.55489   0.32506389   -11.380236    200.81239   0.27337663   -20.523993    1.8487903   0.44230491   -471.89636 
 1001700    472.04924   -356.96279   -334.45184      -354.51     303.8137      4.73293   0.50034984   -20.924956   -230.56791   0.33606221   -21.328582    4.6972353   0.59161459   -11.081228    -230.5909   0.31513582   -11.314155    200.80397   0.27072002   -20.523726    1.8490671   0.44244054   -471.89656 
 1001800    472.04924   -347.72931   -335.63667   -330.82689    303.80509    4.7006241   0.52000078   -20.931275   -230.58199   0.35296901   -21.333955    4.6641803   0.62621707   -11.105696   -230.60418   0.33546683   -11.320173    200.79338   0.27111285   -20.506745     1.849344   0.44257618   -471.89676 
 1001900    472.04924   -363.80308   -290.43538    -297.8558    303.59774    4.6741506   0.53359805   -20.923293   -230.55648   0.32771181   -21.342455    4.6501158   0.64798634   -11.117172   -230.56642   0.30046949   -11.314578    200.76516   0.27646627   -20.499578    1.8496209   0.44271181   -471.89696 
 1002000    472.04924   -347.78522   -308.17254   -301.54792    303.89147    4.6728411    0.5273585   -20.922622   -230.55975   0.30884057    -21.34345    4.6473433   0.65915949   -11.105224   -230.57076   0.29203714   -11.295523    200.77481    0.2856426   -20.500992    1.8498977   0.44284744   -471.89716 
 1002100    472.04924   -311.07055   -305.80479   -262.29664    303.69534    4.6597172   0.53868597   -20.931003   -230.55753   0.34337081   -21.356254    4.6409576   0.69022922   -11.115888   -230.56282   0.34285454   -11.297426    200.77744   0.25963214   -20.498822    1.8501746   0.44298308   -471.89736 
 1002200    472.04924   -289.23685    -281.0432   -282.95844    303.54185    4.6551494    0.5454736   -20.955988   -230.59046   0.35124378   -21.345004    4.6368503   0.67856902    -11.13847   -230.56719   0.36409231    -11.30101    200.77636   0.24613316   -20.509098    1.8504515   0.44311871   -471.89756 
 1002300    472.04924   -314.98501   -296.74456   -260.69226    303.88593    4.6718234   0.55481005   -20.971369    -230.6172   0.35799009   -21.343753    4.6313168   0.67488635   -11.153612   -230.58488   0.36012552   -11.285984    200.77416   0.27712103   -20.510057    1.8507283   0.44325434   -471.89776 
 1002400    472.04924   -279.20285   -264.00796   -264.26547    303.87784    4.6579121   0.56222314    -20.98407   -230.63765   0.35650187   -21.345868    4.6236831    0.6746987   -11.152893   -230.60569   0.36110469     -11.3081    200.77923   0.28048183   -20.483502    1.8510052   0.44338998   -471.89796 
 1002500    472.04924   -264.59446   -257.23096   -220.05029    303.72593    4.6662037   0.55804839   -20.961541   -230.63835   0.34198318   -21.337406    4.6117154   0.68961193   -11.131854   -230.62344   0.35047553   -11.299243    200.78618   0.27798421   -20.476765    1.8512821   0.44352561   -471.89816 
 1002600    472.04924   -254.72856   -238.82548   -208.64996    303.77688    4.6617027   0.54173374   -20.942707   -230.64687   0.36139703   -21.325375    4.6139855   0.66540443   -11.126304    -230.6407    0.3813675   -11.317617    200.79222   0.26230588   -20.466571    1.8515589   0.44366124   -471.89836 
 1002700    472.04924   -262.26604   -237.00971    -209.3546    303.72753    4.6665005   0.54145479   -20.965956   -230.65928   0.34900235   -21.356018    4.6062483   0.65803415    -11.15715   -230.67087   0.35948066   -11.369068    200.77488   0.24737573   -20.466302    1.8518358   0.44379688   -471.89856 
 1002800    472.04924   -261.67986   -234.28279   -224.05906    304.15321    4.7084699   0.54993669    -20.97616   -230.66048   0.34014573   -21.368828    4.6661337   0.67201761   -11.166927   -230.66288   0.33062316   -11.372814    200.80256   0.26812607   -20.467659    1.8521127   0.44393251   -471.89876 
 1002900    472.04924   -217.17545     -237.073   -154.54685    303.72781    4.6963159   0.51456293   -21.002697   -230.66528   0.31444947   -21.381628    4.6829524   0.64853118   -11.188563   -230.64513   0.29480748    -11.38019    200.78084   0.27734217   -20.459953    1.8523896   0.44406814   -471.89896 
 1003000    472.04924   -254.09705   -231.01506   -183.64759    304.22839    4.6954216   0.48113057   -21.009374   -230.64786   0.34772855   -21.361935    4.6941989   0.61413254   -11.211444   -230.63312   0.32402635   -11.334437     200.7921    0.2594859   -20.468227    1.8526664   0.44420378   -471.89916 
 1003100    472.04924   -245.94821   -254.45545   -188.10534    304.19781    4.7163214   0.44852517   -20.998863   -230.66452   0.35631688   -21.375215    4.7346615   0.56288272   -11.210619   -230.66465   0.36270089   -11.355086     200.7919   0.24416979   -20.472696    1.8529433   0.44433941   -471.89936 
 1003200    472.04924   -227.62689   -228.30691   -181.13042    304.01574     4.724743   0.45750229    -20.98582   -230.66558   0.36383312    -21.36817    4.7552615   0.54802845   -11.168312   -230.67092   0.36904579   -11.335669    200.78921   0.24968138   -20.480918    1.8532202   0.44447504   -471.89956 
 1003300    472.04924   -203.95419   -203.46055    -116.5296    303.37113    4.7229739   0.44168632     -21.0183   -230.66051   0.36953023    -21.37756    4.7416344   0.52876324   -11.206431   -230.67775   0.36695133   -11.346384    200.78085    0.2719428   -20.444027     1.853497   0.44461067   -471.89976 
 1003400    472.04924   -206.74251   -185.15711   -132.94919     303.8097    4.7338667    0.4448709    -21.01358   -230.64492   0.36228203   -21.389534    4.7286907   0.53036548   -11.204345   -230.64789    0.3436527   -11.361101    200.77706   0.26384996   -20.448429    1.8537739   0.44474631   -471.89996 
 1003500    472.04924   -214.53239   -209.24102   -118.05034    303.96305    4.7348763    0.4344544   -21.004487   -230.62923   0.37927872   -21.370131    4.7142574   0.51878771   -11.192547   -230.63147   0.33512705   -11.343605    200.78685   0.25932232   -20.459943    1.8540508   0.44488194   -471.90016 
 1003600    472.04924   -149.92586   -178.41374   -95.981807    303.87179     4.758879     0.434153   -21.044258   -230.62425   0.39282085   -21.384981    4.7312419   0.53522256   -11.208004   -230.61671   0.36745915   -11.358345    200.78857   0.25808061   -20.464101    1.8543276   0.44501757   -471.90036 
 1003700    472.04924   -144.93215     -124.152   -64.505937     303.6438    4.7528675    0.4348096   -21.059212   -230.61193   0.36620155   -21.413755    4.7214726   0.55543328   -11.213781   -230.61344   0.37252375   -11.376058    200.79536   0.28494527   -20.485969    1.8546045   0.44515321   -471.90056 
 1003800    472.04924   -134.85312   -153.96595   -70.369568    303.95748    4.7624005   0.45332731   -21.067522   -230.60296   0.34428504   -21.415031    4.7266166   0.56412777   -11.228695   -230.58472   0.34878071   -11.367435    200.78392   0.29204007   -20.511305    1.8548814   0.44528884   -471.90076 
 1003900    472.04924   -117.06862   -145.91333   -46.471702    303.98441    4.7715729    0.4907985   -21.068014   -230.60779   0.38534867   -21.440198    4.7354597    0.5925636   -11.244309   -230.58818   0.36763079   -11.414264    200.78672    0.2965157   -20.490762    1.8551582   0.44542447   -471.90096 
 1004000    472.04924   -144.72705   -148.57696   -24.880741    304.06406    4.7775912   0.49515133   -21.071475   -230.58478   0.37828845   -21.431373    4.7405111   0.62572712   -11.247901   -230.56323    0.3821471   -11.430036    200.78776   0.31528203   -20.504104    1.8554351   0.44556011   -471.90116 
 1004100    472.04924   -109.51238   -135.13458   -39.915687    303.82867    4.7391669   0.50555528    -21.07484   -230.55281   0.40073617   -21.409534    4.6906125   0.63844254   -11.252013    -230.5319   0.40300538   -11.411679     200.8013   0.32846501   -20.494115     1.855712   0.44569574   -471.90136 
 1004200    472.04924   -139.77076   -115.18887   -8.4635849    303.67559    4.7474316   0.48871604   -21.083362   -230.53872   0.40951745   -21.404619    4.7065914   0.61040858   -11.283509   -230.53386   0.41900456   -11.416534    200.79343   0.34143541   -20.500464    1.8559888   0.44583137   -471.90156 
 1004300    472.04924   -112.05097   -144.29098   -11.649009    303.71471    4.7610389   0.49618343   -21.080536   -230.55291   0.41962328   -21.398852    4.7375481   0.60163868   -11.274601   -230.54626   0.42567759   -11.384428    200.79759   0.34874219   -20.496255    1.8562657   0.44596701   -471.90176 
 1004400    472.04924   -109.57158   -113.79558    1.0412377    303.84583    4.7824073    0.5131203   -21.089366   -230.53785   0.43840227   -21.415082    4.7616203   0.62738467   -11.265257    -230.5301   0.42244923   -11.372138    200.79436   0.34667011   -20.526081    1.8565426   0.44610264   -471.90196 
 1004500    472.04924   -97.370002    -114.8696   -9.0589786     303.8416    4.7835447   0.53022231   -21.083205   -230.50941   0.44954333   -21.428537    4.7654391   0.65760042   -11.296672   -230.49871   0.46752141    -11.37771    200.80907   0.31619628   -20.529657    1.8568194   0.44623827   -471.90216 
 1004600    472.04924   -89.091745    -138.7479   -26.703851     303.7406    4.7968484   0.50290777    -21.07992   -230.50588   0.46447344   -21.416509    4.7883826   0.61634436   -11.304573   -230.52416   0.46855441   -11.379736    200.81891   0.31734604    -20.53462    1.8570963   0.44637391   -471.90236 
 1004700    472.04924   -147.43581   -102.06702   -18.795225    303.91435    4.8011667   0.49372835   -21.034691   -230.51505   0.47087868   -21.402986    4.7913825   0.60313755   -11.226846    -230.5394   0.45445829   -11.389693    200.80404   0.31884442   -20.530176    1.8573732   0.44650954   -471.90256 
 1004800    472.04924    -117.8044   -130.44969    8.0166114    303.72055    4.8184356   0.48009804   -21.020844   -230.51863    0.4807724   -21.432351    4.8045522   0.59267891   -11.184051   -230.52773   0.46929602   -11.412604    200.83278   0.31920458   -20.543282      1.85765   0.44664517   -471.90276 
 1004900    472.04924   -117.82067   -156.09225    13.364038    303.98797     4.808977   0.49607485    -21.02576   -230.53598     0.497249   -21.441849    4.7919972   0.59673247   -11.200529    -230.5368   0.47328304   -11.429795    200.83612   0.33021809   -20.538577    1.8579269   0.44678081   -471.90296 
 1005000    472.04924    -122.0646    -144.5816    6.2890307    304.21044    4.8271708   0.49012376   -21.039392   -230.51949   0.52355274   -21.448097    4.8120225   0.62046678    -11.21168   -230.51664   0.50941735    -11.44456    200.85231   0.31494559   -20.537833    1.8582038   0.44691644   -471.90316 
Loop time of 12513.3 on 512 procs for 1000000 steps with 811923 atoms

Performance: 13.809 ns/day, 1.738 hours/ns, 79.915 timesteps/s
99.9% CPU use with 512 MPI tasks x no OpenMP threads

MPI task timing breakdown:
Section |  min time  |  avg time  |  max time  |%varavg| %total
---------------------------------------------------------------
Pair    | 3539.4     | 8075.6     | 8802.4     |1088.0 | 64.54
Neigh   | 0.0036049  | 1.0267     | 1.2094     |  22.2 |  0.01
Comm    | 893.22     | 1317.4     | 4027.7     |1388.1 | 10.53
Output  | 6.699      | 6.9728     | 7.3887     |   1.0 |  0.06
Modify  | 64.458     | 97.649     | 111.36     |  75.4 |  0.78
Other   |            | 3015       |            |       | 24.09

Nlocal:    1585.79 ave 1794 max 0 min
Histogram: 16 0 0 16 0 0 0 0 16 464
Nghost:    4316.71 ave 4815 max 718 min
Histogram: 16 0 0 16 0 0 16 0 112 352
Neighs:    111623 ave 127495 max 0 min
Histogram: 16 0 5 11 0 0 0 0 62 418

Total # of neighbors = 57151137
Ave neighs/atom = 70.3898
Neighbor list builds = 173
Dangerous builds = 0



Total wall time: 3:33:49
0:14
