LAMMPS (16 Feb 2016)
# ------------------------ INITIALIZATION ----------------------------
echo both
#log		log.c
units           metal
dimension       3
boundary        p p p
atom_style      atomic
shell         mkdir  cfg
WARNING: Shell command 'mkdir' failed with error 'File exists' (../input.cpp:1126)
shell         mkdir  dump
WARNING: Shell command 'mkdir' failed with error 'File exists' (../input.cpp:1126)


# ----------------------- ATOM DEFINITION & Force Field -------------
read_data     NPT_relaxed.data
  orthogonal box = (-230.506 -11.8296 -940.152) to (230.506 11.8296 32.2541)
  16 by 1 by 32 MPI processor grid
  reading atoms ...
  793759 atoms
  reading velocities ...
  793759 velocities

pair_style      eam/alloy
pair_coeff  	  * * Cu01.eam.alloy Cu

#---------------------- DEFINE Laser GERION and GROUP ----------------
region       R1  block -75  75  INF  INF  INF  5  units box
group        G1 region R1
258667 atoms in group G1
group        G2 subtract all G1
535092 atoms in group G2


#define     temperature/pressure calculation  group
variable    x1atom atom "x>=0  &&  x<5 &&  z>-40 && z<1"     ##NEW!!!!!!!!!!!!
variable    x2atom atom "x>=-230.51  &&  x<-226.54 &&  z>-40 && z<1"
variable    x3atom atom "x>=0  &&  x<5 &&  z>-20 && z<1"
variable    x4atom atom "x>=-230.51  &&  x<-226.54 &&  z>-20 && z<1"
variable    x5atom atom "x>=196  &&  x<200 &&  z>-40 && z<1"

group       x1atom variable x1atom
406 atoms in group x1atom
group       x2atom variable x2atom
301 atoms in group x2atom
group       x3atom variable x3atom
203 atoms in group x3atom
group       x4atom variable x4atom
151 atoms in group x4atom
group       x5atom variable x5atom
303 atoms in group x5atom


compute      COM1x x1atom com
compute      COM2x x2atom com
compute      COM3x x3atom com
compute      COM4x x4atom com
compute      COM5x x5atom com

compute      COMall all com

#Temperature profile
#variable      Tprofile atom 300*(1+(step/5000)*2.5*exp(z/40))
#variable tmp equal "lz"
#variable L0 equal ${tmp}
variable      Tprofile atom  300+600*(step/5000)*exp(z/40)*exp(-x*x/11250)


# ------------------------- SETTINGS ---------------------------------
thermo          100
thermo_style    custom step lx pxx pyy pzz temp c_COM1x[1] c_COM1x[2] c_COM1x[3] c_COM2x[1] c_COM2x[2] c_COM2x[3] c_COM3x[1] c_COM3x[2] c_COM3x[3] c_COM4x[1] c_COM4x[2] c_COM4x[3]  c_COM5x[1] c_COM5x[2] c_COM5x[3] c_COMall[1] c_COMall[2] c_COMall[3]

timestep       0.002


compute dispall all displace/atom
# ---------------- Run Laser Material Interaction --------------------
#dump          1 all custom 1000 dump/z1dump.atom id type x y z c_dispall[1]  c_dispall[2]  c_dispall[3] c_dispall[4]
#dump          2 all cfg 100 cfg/*.cfg mass type xs ys zs
#dump_modify   2 element Al

#relax for 2 PS
#fix           1 all nvt temp 300.0 300.0 0.1
#run  1000
#unfix         1

fix           1  all nve
fix           3temp  all  langevin  v_Tprofile  0  0.1  378411   #TEST ALL
run           5000
Neighbor list info ...
  1 neighbor list requests
  update every 1 steps, delay 10 steps, check yes
  max neighbors/atom: 2000, page size: 100000
  master list distance cutoff = 7.50679
  ghost atom cutoff = 7.50679
  binsize = 3.75339 -> bins = 123 7 260
Memory usage per processor = 0.363033 Mbytes
Step Lx Pxx Pyy Pzz Temp COM1x[1] COM1x[2] COM1x[3] COM2x[1] COM2x[2] COM2x[3] COM3x[1] COM3x[2] COM3x[3] COM4x[1] COM4x[2] COM4x[3] COM5x[1] COM5x[2] COM5x[3] COMall[1 COMall[2 COMall[3 
       0    461.01254    4826.8822    1335.4831    279.01267    299.87868    2.6401651    31.742604   -20.111004   -225.37147    31.940117   -19.978893    2.6699046    32.749849   -10.160484   -225.42305    32.622645   -9.8250405    198.09124    31.633478   -20.040188  -0.54159285  -0.18922841   -438.34381 
     100    461.01254    5084.6851    1478.3364    480.55382    299.16423    2.6595237     31.79644   -20.118589   -225.39959    32.004305   -19.975739    2.6818064    32.804048   -10.166243   -225.43967    32.677459   -9.8091763    198.07221    31.684698   -20.053123  -0.54166593  -0.18866376   -438.34461 
     200    461.01254    5132.2719    1526.1301    502.52313    299.97993    2.6514287     31.77013   -20.121264   -225.40087    32.006023   -19.990752    2.6738065    32.773702   -10.138149   -225.44707    32.675925   -9.8270673    198.06151    31.690835     -20.0409  -0.54202434  -0.18833437   -438.34516 
     300    461.01254    5169.2947     1538.307    482.42052    299.89682    2.6486133    31.751285   -20.123293   -225.39588    32.025643   -19.979931    2.6802086    32.761947   -10.167936   -225.43939    32.697744   -9.8245238    198.05065    31.693921   -20.025686  -0.54210335  -0.18826434   -438.34555 
     400    461.01254     5110.545    1536.6827    519.32179    300.78164    2.6554028    31.769014   -20.133094   -225.39048     32.01728   -19.962487    2.7041519    32.762229   -10.174937    -225.4171    32.697381   -9.7896169    198.05349    31.697831   -20.003204  -0.54223256  -0.18778632    -438.3459 
     500    461.01254    5175.2522    1560.6559    487.89542    300.69355    2.6556322    31.771437   -20.120961   -225.40037    32.018357   -19.977252    2.6907504    32.771744   -10.178117   -225.42971     32.70366   -9.8025567    198.07311    31.689218   -19.987489  -0.54246623  -0.18774159   -438.34594 
     600    461.01254    5150.8854    1528.7649    564.29431     300.4782    2.6605359    31.746304   -20.097281   -225.40144    32.001168   -19.974808    2.6799105    32.755258   -10.131196   -225.43718    32.678128   -9.8123943    198.06878    31.698591   -19.984622  -0.54179091  -0.18764701   -438.34532 
     700    461.01254    5181.8703    1583.2331    501.16614    301.42091    2.6719642    31.729474   -20.082095   -225.41156    31.996072   -19.959562    2.7177489    32.746579   -10.101705   -225.44814    32.651751   -9.7882078    198.06274    31.673204   -19.998736  -0.54175224  -0.18710449   -438.34492 
     800    461.01254    5119.7342    1591.0913    509.84602     301.7056    2.6788083    31.730529   -20.086941   -225.39474    31.989924   -19.952724    2.7294988    32.734251   -10.110447    -225.4184    32.655485   -9.7819355    198.05923    31.679312   -19.963248  -0.54232926  -0.18667928   -438.34434 
     900    461.01254    5130.3968    1614.0002    585.24576    302.26528    2.6653292    31.708148   -20.074774   -225.39103    31.991555   -19.974793    2.7258274    32.705592   -10.078587   -225.40724    32.672648   -9.8029871    198.07291    31.650274   -19.979646  -0.54197833   -0.1869703   -438.34413 
    1000    461.01254    5126.8649    1607.4211    485.29665    301.83898    2.6719771    31.702015   -20.083527   -225.38378     32.01085   -19.978343    2.7210212    32.685804   -10.100718   -225.40297    32.687111   -9.8101943    198.08478    31.654222   -19.998615  -0.54203015  -0.18720705   -438.34447 
    1100    461.01254    5126.3896    1660.6073    520.67835    302.41629    2.6419919    31.710654   -20.074266   -225.39278    32.008201   -19.952945    2.6805902    32.688495   -10.103378   -225.40636    32.681965    -9.804277    198.07458    31.638521   -20.004367  -0.54232529  -0.18672918   -438.34437 
    1200    461.01254    5091.7068    1621.4331    550.61777    302.77326     2.639588    31.717195   -20.069453   -225.38699    32.014245   -19.951186    2.6874752    32.706496   -10.101459   -225.38505    32.695128   -9.7749945    198.06023    31.642842   -20.013477   -0.5417798  -0.18709732   -438.34409 
    1300    461.01254    5142.4478    1691.3768    546.06794    302.55136    2.6519997    31.735399    -20.06884   -225.37941    32.019227   -19.961022    2.7022895    32.707495   -10.100951   -225.37697    32.726043   -9.7641117    198.07933    31.655971   -20.017304  -0.54130183  -0.18649811   -438.34353 
    1400    461.01254    5118.2555    1658.0752    580.73653    303.01344      2.65559     31.71969   -20.054338   -225.39334     32.04613   -19.965179     2.706941    32.690405   -10.095795   -225.39232    32.747223   -9.7635354    198.07581    31.665295   -19.996257  -0.54136166  -0.18613211   -438.34284 
    1500    461.01254    5104.1622    1687.3726    490.49545    303.63777    2.6454195    31.715079   -20.060759   -225.39488    32.029125   -19.975539    2.6744173     32.69987   -10.075834   -225.39004    32.728799   -9.7996374    198.07385    31.648249   -19.991142  -0.54174191  -0.18572826   -438.34248 
    1600    461.01254    5152.5912    1688.5668    509.70992    303.31124    2.6616972    31.698435   -20.091065    -225.3977    32.020992   -19.984544    2.6946485    32.674535   -10.109413   -225.39914    32.720239   -9.8010886    198.06325    31.640158   -20.000409  -0.54204417  -0.18598453   -438.34213 
    1700    461.01254    5175.1001    1732.3666    577.88877    303.21821    2.6717005    31.715793   -20.090433   -225.38862    32.052511   -19.961045    2.7270271     32.69109   -10.121185   -225.39375    32.758692   -9.8146154    198.05455    31.670342   -20.019532  -0.54272943  -0.18638059   -438.34185 
    1800    461.01254    5186.1254    1771.7749    567.59309    303.51891    2.6621618    31.719676   -20.085673   -225.39366    32.074437   -19.952527    2.7153035     32.71852   -10.099149   -225.40331    32.773011     -9.80023    198.08435    31.645564   -20.009328   -0.5429691  -0.18658653   -438.34206 
    1900    461.01254    5186.7549    1764.2511    576.12335    304.33819    2.6540931    31.716626   -20.062714   -225.38856    32.047237   -19.964525    2.7124973    32.722564   -10.079771   -225.39784    32.745132   -9.8061293    198.06734    31.646328   -19.991262  -0.54309902   -0.1869083    -438.3421 
    2000    461.01254    5201.6008    1805.4126    621.95038    304.20034     2.672687    31.716646    -20.09122   -225.38818    32.049202   -19.970137    2.7219773    32.712389   -10.104288   -225.38027    32.734845   -9.8111082    198.06429     31.64353   -19.989947  -0.54333708  -0.18650578   -438.34283 
    2100    461.01254    5189.3203    1789.6508    564.73093    304.68422    2.6588124    31.735053   -20.062034    -225.3803    32.053892   -19.981354    2.6921682    32.742178    -10.06771    -225.3768     32.74244   -9.8183244    198.07156    31.636895   -19.980151  -0.54427077  -0.18628434   -438.34284 
    2200    461.01254    5214.3375    1834.7354    610.05638    304.14254     2.651756    31.744635   -20.055379   -225.38238    32.069796   -19.986783    2.6906685    32.748779   -10.051243   -225.37478    32.739865   -9.8065264    198.06583    31.643063   -20.003046  -0.54446685  -0.18606645   -438.34261 
    2300    461.01254    5214.5991    1766.0492    568.05508    305.24337    2.6600041    31.748574   -20.045125   -225.38456    32.082804   -19.971652     2.707782    32.749155   -10.036576   -225.37386    32.744512   -9.8133588    198.06317     31.64197   -19.996859  -0.54445239  -0.18598307   -438.34243 
    2400    461.01254    5196.8201    1811.7551     518.7943     304.9227    2.6688534    31.754433   -20.018456   -225.38302    32.086252   -19.951052    2.7195528    32.758235   -10.005143   -225.39576    32.771031   -9.8130704    198.05571    31.635157    -19.99551  -0.54422251  -0.18615652   -438.34204 
    2500    461.01254    5175.6552    1836.4424    535.96822    305.12692    2.6656597    31.757749   -20.009898   -225.36747     32.08484   -19.949638    2.7089397     32.74641   -10.006715   -225.36588    32.778777   -9.8097819    198.05338    31.658694   -19.991911  -0.54429896  -0.18643989    -438.3422 
    2600    461.01254    5157.9357    1801.1146    537.25872    305.31117    2.6600747    31.746349    -20.04357   -225.37372    32.063388   -19.972273    2.7003414    32.725892   -10.028884   -225.39424     32.74511   -9.8215414    198.06918    31.666236   -20.008887  -0.54457332  -0.18642426   -438.34232 
    2700    461.01254    5173.6521    1852.1794    582.15168    305.96664    2.6292386    31.736293   -20.031526   -225.37625    32.052265   -19.982755    2.6676347    32.723626   -10.030403   -225.37605    32.712437   -9.8441018    198.08459    31.658112   -20.027909  -0.54447832  -0.18668601   -438.34285 
    2800    461.01254    5161.3365    1840.6179    554.22045    305.60611    2.6287771    31.744349   -20.003992   -225.35291    32.049982   -19.967753    2.6692727    32.719984   -10.002404   -225.32199    32.714706   -9.8365494    198.07608    31.679402   -20.004583  -0.54420815  -0.18734944    -438.3432 
    2900    461.01254    5175.4484    1883.1437    541.85833    306.47181    2.6395502    31.745316   -20.017979   -225.37367    32.047594   -19.988324    2.6932719     32.70888   -10.000354   -225.34169    32.694504   -9.8525358     198.0608    31.692781   -20.002408  -0.54353139  -0.18746774   -438.34375 
    3000    461.01254    5125.2659    1869.7075    516.13824    306.21547    2.6336433    31.744998    -20.03211    -225.3704    32.053135     -19.9999    2.6754782    32.718021   -10.034558   -225.35564    32.720633   -9.8536219    198.06286    31.685496   -19.984489  -0.54362057  -0.18802517   -438.34384 
    3100    461.01254    5124.9622    1878.4008    588.95551     306.4271    2.6698372    31.747978   -20.049707      -225.38    32.065587   -19.987684    2.7278899     32.71294   -10.068248   -225.37987    32.734846   -9.8209725     198.0625     31.68867   -19.980843  -0.54319343  -0.18795062    -438.3436 
    3200    461.01254    5181.5259    1912.2765    536.76027    307.30064    2.6832948    31.727524   -20.043811   -225.35997     32.05431   -19.990658    2.7324494    32.710169   -10.063241   -225.34027     32.73559   -9.8468278    198.05287    31.690406   -19.967856  -0.54342116  -0.18837433   -438.34401 
    3300    461.01254    5173.4422    1923.5825    545.78618    307.15263    2.6781146    31.692779   -20.053424   -225.36152    32.056397   -20.002461    2.7157039    32.668959   -10.066509   -225.33603    32.756716   -9.8463485    198.05606    31.691433   -19.949563  -0.54369837  -0.18850101   -438.34425 
    3400    461.01254    5241.6468    1893.4933    592.48654    307.64868    2.6903014    31.712934   -20.062085   -225.36644    32.074893   -20.007307    2.7458678     32.67617   -10.090861    -225.3587    32.775295   -9.8426336      198.062    31.696826    -19.95686  -0.54364027  -0.18840372   -438.34496 
    3500    461.01254    5242.8706    1949.1381    593.44511    307.41952    2.6760854    31.722356   -20.052014   -225.37129    32.086062    -20.00375    2.7556269    32.697735   -10.088342   -225.34368    32.759779   -9.8222676    198.04728     31.69623   -19.947574  -0.54332316  -0.18843934   -438.34495 
    3600    461.01254    5217.9058    1945.1322    555.15442    307.17788    2.6793252    31.708179    -20.04731   -225.36486    32.069824   -20.002381    2.7566426    32.690154   -10.062206   -225.35278    32.758392   -9.8186939    198.02909    31.707341   -19.975678  -0.54303773  -0.18911867   -438.34482 
    3700    461.01254    5229.4254    1991.0937    599.57032    307.49534    2.6813262    31.711462   -20.041659   -225.38182    32.084015   -20.006415    2.7492527    32.685194   -10.075938   -225.37188    32.774482   -9.8381091    198.02082    31.731861   -19.962385   -0.5429584  -0.18994721   -438.34476 
    3800    461.01254    5205.7545    2043.8172    593.70655    308.04864    2.7057442    31.734418   -20.062567    -225.3765    32.082917   -20.015605    2.7701747    32.705879   -10.068916   -225.39001    32.772172   -9.8877534    198.03062    31.713594   -19.954933  -0.54316141  -0.19085681   -438.34499 
    3900    461.01254    5221.8188    2020.0177    598.62908    308.55322    2.6828855    31.702872   -20.053019   -225.38776    32.082043   -19.994193    2.7542529    32.672732   -10.064553   -225.39599    32.772887    -9.856068    198.03543    31.717282   -19.961141  -0.54348793  -0.19062741   -438.34481 
    4000    461.01254    5223.3348    2047.7204    525.54317    308.86057    2.7028312    31.720791   -20.039112   -225.36869    32.081896     -19.9844    2.7738977    32.667133   -10.050356   -225.35837    32.760445   -9.8555144    198.03908    31.716371   -19.941189  -0.54286993  -0.19054937   -438.34473 
    4100    461.01254    5239.5858    2017.1677    621.53158    308.98295    2.6826344    31.737392   -20.056623   -225.36113    32.078366   -19.984272    2.7334982    32.718341   -10.031552   -225.35997      32.7523   -9.8540636    198.05837    31.719769   -19.970392    -0.542358  -0.19065126   -438.34455 
    4200    461.01254     5256.252    2061.9272    571.92378    309.02953    2.6926004    31.764307   -20.029281   -225.37458    32.079126   -20.011946    2.7500892    32.752623   -10.004085   -225.39333    32.749113   -9.8653268    198.06655    31.706524    -19.94379  -0.54244104  -0.19060567   -438.34475 
    4300    461.01254    5237.8571    2091.9499    618.21444    309.13527    2.7153183    31.754776   -20.029477   -225.36779    32.057589    -20.01893    2.7802408    32.725115   -10.008444   -225.39052    32.732189   -9.8576463    198.06009    31.693991   -19.939517  -0.54244049  -0.19085002   -438.34547 
    4400    461.01254    5260.2754    2070.6347    658.38638    309.33509    2.6993794    31.762075    -20.00979   -225.36565    32.069806     -20.0468    2.7513689    32.745214   -9.9912618   -225.37053    32.741959   -9.9039825    198.05229    31.671621   -19.961292  -0.54224174  -0.19117032   -438.34621 
    4500    461.01254    5235.0525    2124.0897    625.70565    309.79818    2.6898591    31.744292   -19.988143   -225.36551     32.08132   -20.056442    2.7509564    32.757173   -9.9693419   -225.35372    32.770807   -9.9132516       198.06    31.686505   -19.956159   -0.5423769  -0.19117251   -438.34651 
    4600    461.01254    5309.9735     2089.671    649.10598    310.08482    2.7283202    31.729687   -19.942383   -225.37046    32.102758   -20.044152    2.7910966    32.743019   -9.8768761    -225.3658    32.800313    -9.886728    198.05416    31.693679   -19.958117  -0.54231519  -0.19129377   -438.34657 
    4700    461.01254    5242.6817     2088.809    669.56825    310.36126    2.7239001    31.710865   -19.943498   -225.37294    32.129397   -20.046677    2.7895009    32.709097   -9.9058402   -225.37246    32.812178   -9.8877287    198.06082    31.661901   -19.964655  -0.54224603  -0.19115132   -438.34674 
    4800    461.01254    5252.2414    2070.6746     655.8924    310.56375     2.713885     31.73066   -19.911696   -225.38347    32.102076    -20.04783    2.7747564    32.713605   -9.8358835   -225.38933    32.803324   -9.8917502    198.05446    31.640286   -19.994504   -0.5424137  -0.19118211   -438.34716 
    4900    461.01254    5247.9553    2085.3745    623.94801    310.45225    2.7258811    31.788033   -19.918839   -225.39131    32.089267   -20.033666    2.7649604    32.773498    -9.840958   -225.41606    32.771637   -9.8630947    198.05888    31.651926   -20.006096   -0.5424216  -0.19099746   -438.34722 
    5000    461.01254    5248.9504    2120.3832    674.45853    310.85445    2.7347672    31.784373   -19.943882   -225.37878    32.105905   -20.020329    2.7957241    32.742412   -9.8848287   -225.39431    32.770818   -9.8677329    198.05241    31.645627   -20.003581  -0.54211467  -0.19084755   -438.34735 
Loop time of 69.0816 on 512 procs for 5000 steps with 793759 atoms

Performance: 12.507 ns/day, 1.919 hours/ns, 72.378 timesteps/s
99.9% CPU use with 512 MPI tasks x no OpenMP threads

MPI task timing breakdown:
Section |  min time  |  avg time  |  max time  |%varavg| %total
---------------------------------------------------------------
Pair    | 0.0023184  | 41.558     | 47.685     | 151.3 | 60.16
Neigh   | 0.00027752 | 0.30771    | 0.45278    |  18.0 |  0.45
Comm    | 0.01188    | 6.5708     | 25.327     | 139.8 |  9.51
Output  | 0.2859     | 0.43698    | 1.2914     |  26.0 |  0.63
Modify  | 0.038192   | 2.7094     | 3.2926     |  52.7 |  3.92
Other   |            | 17.5       |            |       | 25.33

Nlocal:    1550.31 ave 1779 max 0 min
Histogram: 48 0 0 0 0 0 0 0 24 440
Nghost:    4197.63 ave 4796 max 0 min
Histogram: 18 30 0 0 0 0 5 27 0 432
Neighs:    110001 ave 127715 max 0 min
Histogram: 48 0 0 0 0 0 0 7 25 432

Total # of neighbors = 56320339
Ave neighs/atom = 70.954
Neighbor list builds = 55
Dangerous builds = 0


variable  com1_x equal "c_COM1x[1]"
variable  com1_y equal "c_COM1x[2]"
variable  com1_z equal "c_COM1x[3]"
variable  com2_x equal "c_COM2x[1]"
variable  com2_y equal "c_COM2x[2]"
variable  com2_z equal "c_COM2x[3]"
variable  com3_x equal "c_COM3x[1]"
variable  com3_y equal "c_COM3x[2]"
variable  com3_z equal "c_COM3x[3]"
variable  com4_x equal "c_COM4x[1]"
variable  com4_y equal "c_COM4x[2]"
variable  com4_z equal "c_COM4x[3]"
variable  com5_x equal "c_COM5x[1]"
variable  com5_y equal "c_COM5x[2]"
variable  com5_z equal "c_COM5x[3]"
variable  comall_x equal "c_COMall[1]"
variable  comall_y equal "c_COMall[2]"
variable  comall_z equal "c_COMall[3]"


fix          2 all print 100 "${com1_x}   ${com1_y}   ${com1_z}  ${com2_x}   ${com2_y}   ${com2_z} ${com3_x}   ${com3_y}   ${com3_z} ${com4_x}   ${com4_y}   ${com4_z} ${com5_x}   ${com5_y}   ${com5_z} ${comall_x}   ${comall_y}   ${comall_z}" file COM.data screen no
#-------------------------- Wave Propagation -------------------------
unfix        3temp
run          1000000
Memory usage per processor = 0.363033 Mbytes
Step Lx Pxx Pyy Pzz Temp COM1x[1] COM1x[2] COM1x[3] COM2x[1] COM2x[2] COM2x[3] COM3x[1] COM3x[2] COM3x[3] COM4x[1] COM4x[2] COM4x[3] COM5x[1] COM5x[2] COM5x[3] COMall[1 COMall[2 COMall[3 
    5000    461.01254    5248.9504    2120.3832    674.45853    310.85445    2.7347672    31.784373   -19.943882   -225.37878    32.105905   -20.020329    2.7957241    32.742412   -9.8848287   -225.39431    32.770818   -9.8677329    198.05241    31.645627   -20.003581  -0.54211467  -0.19084755   -438.34735 
    5100    461.01254    5220.7871     2107.664    688.62072     310.7365    2.7748959    31.737904   -19.962915   -225.36057    32.071678   -20.048423    2.8350521    32.720047   -9.9051129   -225.35956    32.734405   -9.8836897    198.05373    31.638981   -20.028512  -0.54190696  -0.19070492   -438.34788 
    5200    461.01254    5199.6685    2124.5537    604.11722    310.86069    2.7732315    31.699519   -19.960249   -225.36149    32.064667    -20.06622    2.8111357    32.682509   -9.8933214   -225.34356    32.718818   -9.9061994    198.04339     31.66565   -20.008875  -0.54169925   -0.1905623   -438.34842 
    5300    461.01254    5179.1963    2150.1657    547.28507    310.99397      2.75776    31.716809   -19.966668   -225.36795    32.095487   -20.050606    2.8041814    32.698393   -9.9277451   -225.34892    32.726935   -9.8921091    198.05827     31.68689   -20.023129  -0.54149154  -0.19041967   -438.34895 
    5400    461.01254    5185.6485     2161.321    537.84152    310.98967    2.7218415    31.713732   -19.941918   -225.36696    32.096523   -20.087216    2.7605381    32.680923   -9.9203978   -225.38135    32.734817   -9.9106117    198.07141    31.693361   -20.064383  -0.54128384  -0.19027704   -438.34949 
    5500    461.01254    5175.6698    2141.8422    510.47082    310.99993    2.6992508    31.713586   -19.910194   -225.36473    32.115087   -20.107768    2.7355087    32.678139   -9.8771993   -225.38804    32.734345   -9.9520194    198.06143    31.696336   -20.078213  -0.54107613  -0.19013441   -438.35002 
    5600    461.01254    5130.8842    2171.1192    528.84792    311.27502    2.7083823    31.667674   -19.870202    -225.3846     32.10818   -20.114936     2.739352    32.638235    -9.853211   -225.41066    32.746659   -9.9744623    198.06777    31.689859   -20.030974  -0.54086842  -0.18999178   -438.35055 
    5700    461.01254    5142.5837    2191.1325     541.2814    311.24214    2.7003213    31.629272   -19.856776    -225.3896    32.120192   -20.132397    2.7505494    32.578983   -9.8087207   -225.40342    32.761705   -9.9843303     198.0614    31.677133   -20.032939  -0.54066072  -0.18984915   -438.35109 
    5800    461.01254    5092.0012    2226.6542    558.06851    311.16558    2.6865964    31.627068   -19.843174   -225.39805    32.133414   -20.146808    2.7127503    32.604433   -9.7744053   -225.40619    32.789853   -10.010134    198.06693    31.660648   -20.042793  -0.54045301  -0.18970652   -438.35162 
    5900    461.01254    5110.6742    2250.5166    572.48063     311.1879    2.6721425    31.636109   -19.797609   -225.42655    32.146996   -20.179012     2.689027    32.587215    -9.713783   -225.43564    32.820737    -10.00817    198.06292    31.655736   -20.078231   -0.5402453  -0.18956389   -438.35215 
    6000    461.01254    5085.3935    2291.3409    597.10417    311.03938    2.6677967    31.618844   -19.763889   -225.43094    32.161929   -20.208141    2.7018426    32.571416    -9.680927   -225.42746     32.81501   -10.011856    198.06891    31.615782   -20.114162  -0.54003759  -0.18942126   -438.35269 
    6100    461.01254    5034.4544    2306.0388    520.04659    311.70606    2.6844108     31.63062   -19.771056    -225.4267    32.171985   -20.238476     2.735015    32.610668   -9.6981484   -225.40757    32.862133   -10.060404     198.0579    31.609417   -20.126129  -0.53982989  -0.18927863   -438.35322 
    6200    461.01254     5010.302    2334.8768    550.20785    311.62352    2.6892444    31.626926   -19.775724   -225.43679     32.16432    -20.24858    2.7131535    32.597547    -9.718128   -225.42828    32.855051   -10.093926     198.0582    31.620192   -20.135999  -0.53962218    -0.189136   -438.35375 
    6300    461.01254     4995.273    2338.3004    536.85568    311.80015     2.716726    31.618831   -19.789665   -225.42556    32.166846   -20.265141    2.7510711    32.579244     -9.72643   -225.41648     32.81795   -10.112346    198.04502    31.605031   -20.148447  -0.53941447  -0.18899337   -438.35429 
    6400    461.01254    4933.4739    2430.7051    602.47915    311.62617     2.768306    31.598765   -19.784717   -225.41589     32.10549   -20.280236    2.8231224    32.558806   -9.7515211   -225.42393     32.76786   -10.145754    198.06188    31.595983   -20.165193  -0.53920676  -0.18885074   -438.35482 
    6500    461.01254     4927.603    2415.2745    688.12957    311.76942    2.7805045    31.572294   -19.758975   -225.40038     32.07323   -20.322821    2.8074876    32.553481    -9.729779    -225.4026    32.731199   -10.198805     198.0682    31.593261   -20.187956  -0.53899906  -0.18870811   -438.35535 
    6600    461.01254    4843.8046    2462.8195    701.49167    311.60893    2.8207728     31.59096   -19.746788   -225.41829    32.072609   -20.319697    2.8834509     32.60474   -9.7082813   -225.41008    32.753968   -10.162738    198.09448    31.584916   -20.198132  -0.53879135  -0.18856548   -438.35589 
    6700    461.01254    4846.7052    2505.1743    670.19688    311.53945    2.8129401    31.573406   -19.740113     -225.438    32.085227   -20.324291    2.8732494    32.568164   -9.7203466   -225.43679     32.75695   -10.151348    198.09681    31.562698   -20.201364  -0.53858364  -0.18842285   -438.35642 
    6800    461.01254     4816.693    2464.9669    702.52654    312.13659    2.8180496    31.538368    -19.74763   -225.44559    32.068749   -20.341201    2.8753224    32.533596   -9.7492693   -225.45284    32.723649   -10.147729    198.07949    31.539904   -20.203141  -0.53837593  -0.18828022   -438.35695 
    6900    461.01254     4817.466    2472.6634    724.30995    312.23424    2.8077721    31.517974   -19.694248   -225.44083    32.057606   -20.325778     2.864909    32.536045   -9.6937867   -225.43329    32.707767   -10.153104    198.10499    31.532595   -20.236144  -0.53816823  -0.18813759   -438.35749 
    7000    461.01254    4781.0643    2527.0524    683.88127    312.10914    2.8243978    31.532687   -19.640191   -225.45427     32.01918    -20.34674    2.8784046    32.574923   -9.6270117   -225.44696    32.653681    -10.15799    198.10675    31.494296   -20.233919  -0.53796052  -0.18799496   -438.35802 
    7100    461.01254     4766.813     2582.854     744.0235    311.85168    2.8134737    31.515815   -19.616585   -225.44709    31.976793    -20.37115     2.856428    32.563157   -9.5739891   -225.42565    32.614033   -10.176032    198.12042    31.469333   -20.225052  -0.53775281  -0.18785233   -438.35856 
    7200    461.01254    4719.7094     2546.716    721.44079     312.3436    2.8308086    31.480618   -19.604687   -225.44617    31.942005   -20.401447    2.9017141    32.513405   -9.5382781   -225.42229     32.57235   -10.252234    198.13964    31.483528    -20.22611  -0.53754511   -0.1877097   -438.35909 
    7300    461.01254    4693.5782    2588.9633    780.18515     312.0382    2.8306195      31.4155   -19.570823   -225.43937    31.927152   -20.386059    2.8729921    32.444474   -9.5137504   -225.42622    32.526087   -10.248228    198.14368    31.421857   -20.245762   -0.5373374  -0.18756707   -438.35962 
    7400    461.01254    4695.3503    2604.7951     707.5159     312.1003    2.8095788     31.35938   -19.521972   -225.44385    31.907788   -20.371858    2.8565053    32.365008   -9.4734671   -225.41708      32.5151   -10.217336    198.13746    31.415509   -20.247382  -0.53712969  -0.18742444   -438.36016 
    7500    461.01254    4640.5007    2631.0261    672.99312    312.16505    2.8191582    31.376813   -19.494362   -225.45824    31.883797   -20.382401    2.8695262    32.357921   -9.4514932   -225.44288    32.499329   -10.204655    198.13762    31.360991   -20.248172  -0.53692198  -0.18728181   -438.36069 
    7600    461.01254    4577.3585    2655.4113    648.65906     312.7782    2.8301728    31.380314   -19.517984   -225.46149    31.863812    -20.41664    2.8563441     32.35229   -9.4958644    -225.4425     32.47486    -10.22853    198.14206    31.310803   -20.258488  -0.53671428  -0.18713918   -438.36122 
    7700    461.01254     4573.091    2662.1241    635.97748    312.45396    2.8413843    31.355172   -19.536328   -225.46862    31.821596   -20.436282    2.8722314    32.316173   -9.5142301   -225.44615    32.415413   -10.243208    198.11608     31.24733   -20.251145  -0.53650657  -0.18699655   -438.36176 
    7800    461.01254    4542.4947    2711.8595    606.31853    312.39382    2.8445936    31.362323   -19.482908   -225.46908    31.818107   -20.445107    2.8867669    32.322737   -9.4714112   -225.45024    32.411618   -10.283013    198.08082    31.227701   -20.271596  -0.53629886  -0.18685392   -438.36229 
    7900    461.01254    4488.1942     2729.481    593.76038    312.73761     2.829723     31.34267   -19.427652   -225.44669    31.773133   -20.460153    2.8718147    32.297179   -9.4473361   -225.43769    32.375505   -10.271319    198.08412    31.221449   -20.273755  -0.53609115  -0.18671129   -438.36282 
    8000    461.01254     4505.808    2752.7827    516.52248    312.61982    2.8341064    31.315806   -19.389573   -225.45207    31.713036   -20.454691    2.8876744    32.248082   -9.4031838   -225.46255    32.337677   -10.263915    198.07061    31.214746   -20.251987  -0.53588345  -0.18656866   -438.36336 
    8100    461.01254    4490.4708    2741.8319    536.79055    312.53856     2.846299    31.313682   -19.347622   -225.46064    31.660565   -20.435483    2.9024395    32.246182   -9.3268026   -225.47847     32.29997   -10.264451    198.04377    31.195387   -20.255298  -0.53567574  -0.18642603   -438.36389 
    8200    461.01254    4429.1691    2726.8086    585.39168      312.645    2.8334769    31.262892   -19.294581   -225.44847    31.616348   -20.423576    2.8858606    32.198599   -9.2354613   -225.47659    32.275658   -10.280847    198.02687    31.145498   -20.286465  -0.53546803   -0.1862834   -438.36442 
    8300    461.01254       4361.6    2757.4887    496.79552    312.75795    2.8387852    31.223312   -19.261626   -225.47662    31.573589   -20.414172    2.8821575    32.156586   -9.2077266   -225.50546     32.23553   -10.263325    198.03787    31.099498   -20.330598  -0.53526032  -0.18614077   -438.36496 
    8400    461.01254    4342.7498    2773.1907    483.03833    312.74761     2.871794    31.205134   -19.222059   -225.46968    31.533786   -20.441313    2.9172334    32.146833   -9.2014583   -225.50733    32.178582   -10.283677    198.05056    31.069768   -20.370788  -0.53505262  -0.18599814   -438.36549 
    8500    461.01254    4343.1283    2736.6169    456.65842    312.99197    2.8468121    31.150544   -19.185517   -225.49026    31.480118   -20.435966    2.8901565    32.123127   -9.1660256   -225.52456    32.111284   -10.265951    198.06556    31.053166   -20.382702  -0.53484491  -0.18585551   -438.36602 
    8600    461.01254    4294.8938     2743.406    348.33221    313.21425    2.8487857    31.105607   -19.150435   -225.48614    31.436174   -20.428943     2.920529    32.087598    -9.137193   -225.50483    32.070739   -10.260345    198.08102    31.037769   -20.377037   -0.5346372  -0.18571288   -438.36656 
    8700    461.01254    4231.3664    2765.4397    347.85187    312.91146    2.8587253    31.104921    -19.09949     -225.482    31.400403   -20.421555    2.9287212    32.108326   -9.0789924   -225.49024     32.02675   -10.266935    198.07675    30.991867   -20.373426  -0.53442949  -0.18557025   -438.36709 
    8800    461.01254    4155.9604    2811.5579     268.1068    312.84473    2.8333987    31.073888   -19.068439   -225.44461    31.398372    -20.42941    2.9066958    32.092874   -9.0418414   -225.43338    32.036595   -10.267395    198.07663    30.936917   -20.360542  -0.53422179  -0.18542762   -438.36763 
    8900    461.01254    4148.6007    2817.5907     253.6844    312.68337     2.816352    31.060017   -19.061677   -225.40934    31.373095   -20.423292    2.8589851    32.032605   -9.0079487   -225.38143    32.043089    -10.23509    198.08853    30.895973   -20.374204  -0.53401408  -0.18528499   -438.36816 
    9000    461.01254    4108.8912    2820.8741    198.42984    312.91327    2.8106418    31.042834   -19.041036   -225.39127    31.337019   -20.418204    2.8241549     32.01035    -9.025202   -225.37416    32.026487   -10.221563    198.13379    30.847385   -20.365881  -0.53380637  -0.18514236   -438.36869 
    9100    461.01254    4043.1763    2790.2783    183.01347    313.17891    2.8047272     30.97836   -18.965663   -225.36334    31.321136   -20.419477    2.8130691    31.934719   -8.9463653    -225.3339     31.99738   -10.248484    198.13486    30.822944   -20.392092  -0.53359867  -0.18499973   -438.36923 
    9200    461.01254    4039.0419    2843.8437    124.38042    312.87818    2.7913673    30.947815   -18.932542   -225.34822    31.320383   -20.447339    2.7880852    31.907457   -8.9161158   -225.31672    31.988029   -10.285045     198.1494    30.756463     -20.3971  -0.53339096   -0.1848571   -438.36976 
    9300    461.01254    4006.6748    2824.4118    81.909805    313.17361    2.8103244    30.896358   -18.887955   -225.32357    31.265301   -20.452312    2.8330058     31.85278   -8.8806815   -225.30965    31.944094   -10.298691    198.15003    30.674794   -20.394117  -0.53318325  -0.18471447   -438.37029 
    9400    461.01254    3965.8677    2805.1269   -10.119684    313.14068    2.7972404    30.847272   -18.894254   -225.30247    31.224075   -20.439595    2.8093025    31.815031    -8.876285   -225.30036    31.908945   -10.278847    198.16794    30.619919   -20.414793  -0.53297554  -0.18457184   -438.37083 
    9500    461.01254    3890.6812    2803.3834   -33.611707    313.25128    2.8203089    30.807994   -18.888605   -225.31031    31.193934   -20.453684    2.8247175    31.803244   -8.8803371   -225.33649    31.867251   -10.305407    198.19543    30.567661   -20.427526  -0.53276784  -0.18442921   -438.37136 
    9600    461.01254    3875.4496     2754.534   -72.063753     313.2675     2.808564    30.786699   -18.824041   -225.29019     31.16278   -20.463592    2.7976192    31.739593   -8.7822088   -225.32896    31.833853   -10.312336    198.20262    30.503832   -20.418841  -0.53256013  -0.18428658   -438.37189 
    9700    461.01254    3788.6036     2758.953   -110.59524     313.4685    2.8227451    30.747051    -18.80502   -225.28171    31.105582   -20.501804    2.8176791    31.714652   -8.7527245   -225.33064     31.81646   -10.344768    198.21493    30.455634   -20.411375  -0.53235242  -0.18414395   -438.37243 
    9800    461.01254    3718.5118    2720.8654   -204.58557    313.67137    2.8089081    30.699436     -18.7924    -225.2624     31.05215   -20.486854    2.8135828    31.660435   -8.7693087   -225.30785     31.77119   -10.342367    198.22192    30.390147   -20.417058  -0.53214471  -0.18400132   -438.37296 
    9900    461.01254    3676.0964     2738.029   -222.05635    313.56649    2.8215486    30.678554    -18.76209   -225.24598    30.978282   -20.485547    2.8399793    31.633554   -8.7490639    -225.2857    31.667629   -10.335642     198.2318    30.313386   -20.452037  -0.53193701  -0.18385869   -438.37349 
   10000    461.01254    3657.4715    2790.6648   -237.42687    313.45668    2.8220024    30.635159   -18.735932   -225.23952    30.914294   -20.486101    2.8356783    31.622851   -8.7144875   -225.24552    31.598071   -10.313103    198.28144    30.232681   -20.481406   -0.5317293  -0.18371606   -438.37403 
   10100    461.01254    3560.9096    2789.2142   -234.32855    313.39268    2.8255155    30.585184   -18.713485   -225.23073    30.865701   -20.480269    2.8865366    31.574517   -8.6689277    -225.2197    31.582683   -10.288574    198.31084    30.187625     -20.4779  -0.53152159  -0.18357343   -438.37456 
   10200    461.01254    3559.4416    2777.7456   -315.50877    313.60274    2.8128676    30.544249   -18.701427   -225.20549    30.784002   -20.474538    2.8856645    31.514227   -8.6482883    -225.2101    31.487191   -10.303776    198.33512    30.148017   -20.458918  -0.53131388   -0.1834308   -438.37509 
   10300    461.01254    3473.0009    2855.1734   -341.36698    313.48681    2.8101671    30.498968   -18.696533   -225.19046    30.710364   -20.475571    2.8679746    31.458759    -8.691637   -225.23897    31.387366   -10.324058    198.35647    30.096023   -20.442718  -0.53110618  -0.18328817   -438.37563 
   10400    461.01254      3433.05    2837.8502   -321.78707    313.81466    2.8342371    30.484285   -18.710925   -225.16984    30.642367    -20.47496    2.8910176    31.478857   -8.7188705   -225.20543    31.281515   -10.309694     198.3874     30.05219   -20.451451  -0.53089847  -0.18314554   -438.37616 
   10500    461.01254    3406.4589    2833.7342   -339.31333    313.68274    2.8451705    30.471322   -18.739558   -225.14118    30.544286   -20.480884    2.9079113    31.483339   -8.7445551   -225.16733    31.170394   -10.322134    198.41765     29.97494   -20.500144  -0.53069076  -0.18300291   -438.37669 
   10600    461.01254    3315.6084    2865.9833   -355.09965    313.97484    2.8656705    30.427165    -18.77353   -225.11539    30.435715   -20.506578    2.9092502     31.45656   -8.7953901   -225.12284    31.053634   -10.311707    198.42898    29.916169     -20.5067  -0.53048306  -0.18286028   -438.37723 
   10700    461.01254    3310.7884    2871.7411   -432.34651    313.75127     2.895619    30.433045   -18.775147   -225.09873    30.337194   -20.526337    2.9342371    31.434577   -8.7911798   -225.08858    30.962399   -10.329168    198.41339     29.87652   -20.497566  -0.53027535  -0.18271765   -438.37776 
   10800    461.01254    3273.1296    2877.6495   -488.50107    314.15306    2.9024859    30.413182   -18.731145   -225.07369    30.261887   -20.538858    2.9329719    31.381371   -8.7099721   -225.06504    30.863143   -10.348308    198.42985    29.803467   -20.516729  -0.53006764  -0.18257502    -438.3783 
   10900    461.01254    3257.8639    2890.9601   -449.02378    314.00909    2.8937883    30.361115   -18.712382   -225.05856    30.191225   -20.551453     2.897234    31.298115   -8.6685854   -225.05462    30.771555   -10.377487    198.42986    29.729536   -20.505282  -0.52985993  -0.18243239   -438.37883 
   11000    461.01254     3238.182    2927.6171   -445.51363    313.83212    2.8916179    30.325711   -18.717371    -225.0332    30.100918   -20.575544    2.9225463    31.254529     -8.68972    -225.0182    30.661764   -10.454556      198.447    29.651364   -20.494214  -0.52965223  -0.18228976   -438.37936 
   11100    461.01254    3233.1505    2941.9187   -474.29409    313.89462    2.8788152    30.292847   -18.742665   -225.03084    30.022405   -20.612902    2.9427702    31.222904   -8.7280193   -225.02378    30.592492   -10.494071    198.48487    29.546753   -20.501511  -0.52944452  -0.18214713    -438.3799 
   11200    461.01254    3168.8357    2947.2335   -557.52321    314.28113    2.8893463    30.240111   -18.766834   -225.01759    29.925508   -20.650634    2.9489467    31.174719   -8.7482103    -225.0149    30.514835   -10.519475    198.49472    29.413623   -20.515111  -0.52923681   -0.1820045   -438.38043 
   11300    461.01254    3144.0121    2957.6187    -512.9227    314.11164    2.9270668    30.162935   -18.794313   -225.02608    29.853551   -20.647111    2.9598734     31.10704   -8.7779745   -224.99386    30.490761   -10.496301    198.51096    29.323444   -20.503493   -0.5290291  -0.18186187   -438.38096 
   11400    461.01254    3051.6816    3045.2669   -558.06958    314.26015    2.9811731    30.088066   -18.829863   -225.02636    29.800923   -20.639531    3.0097298    31.022788   -8.7809008   -224.97609    30.463512   -10.483589    198.51532    29.251696   -20.496386   -0.5288214  -0.18171924    -438.3815 
   11500    461.01254    3034.4724    3006.4938   -521.72177    314.21387     2.983192    30.049299   -18.845384   -225.02925     29.74122   -20.597422    3.0439604    30.987142   -8.8045155    -224.9854    30.386386   -10.446584    198.51717    29.142697   -20.444865  -0.52861369  -0.18157661   -438.38203 
   11600    461.01254    2969.4482    3071.0247   -571.65549    314.22761    3.0481377    30.015859   -18.856907   -225.05805    29.655466   -20.559629    3.1176147    30.947925   -8.8472705   -225.00215    30.284348   -10.376479    198.52365    29.055925     -20.4407  -0.52840598  -0.18143398   -438.38256 
   11700    461.01254    2976.2172    3068.7729   -557.05042    314.20455    3.0648117    29.970592    -18.89058   -225.06472    29.589567   -20.517195     3.088733    30.906439   -8.8831915   -224.99587    30.227834   -10.318912    198.51163    29.012458   -20.450508  -0.52819827  -0.18129135    -438.3831 
   11800    461.01254    2984.0215    3087.2524   -589.73407    314.05571    3.0847397    29.892703   -18.904324   -225.06514    29.515652   -20.506009     3.112014    30.831284   -8.9072488   -225.01974    30.184958   -10.307439    198.50394    28.944154   -20.425218  -0.52799057  -0.18114872   -438.38363 
   11900    461.01254    2958.9851    3060.0914   -619.64863    314.18881    3.1174011    29.854558   -18.900658   -225.07243    29.466037   -20.513107    3.1443952    30.799795   -8.8756697   -225.04665    30.112597   -10.336809    198.48445     28.87483   -20.403556  -0.52778286  -0.18100609   -438.38416 
   12000    461.01254    2918.5981    3108.1273   -627.41862    314.85466      3.13226    29.786937   -18.924727   -225.08195    29.440924   -20.472667    3.1271856    30.748658   -8.9290046   -225.04265    30.066062   -10.314508    198.48319    28.762831   -20.350433  -0.52757515  -0.18086346    -438.3847 
   12100    461.01254    2887.5297    3160.5065   -587.21392    314.56628    3.1595316    29.705409   -18.969297   -225.07965    29.351704   -20.447036    3.1592986    30.671391   -8.9887354   -225.05346    29.974098   -10.276096    198.49214    28.692956   -20.342108  -0.52736744  -0.18072083   -438.38523 
   12200    461.01254    2908.1622    3204.4856   -604.27814    314.70155    3.1649764    29.638014   -18.965814   -225.07975    29.254706   -20.439934    3.1633307    30.613785   -8.9528189   -225.05545    29.855244   -10.277805    198.46371    28.652719    -20.32799  -0.52715974   -0.1805782   -438.38576 
   12300    461.01254     2861.646    3233.4868   -558.99614    314.52508    3.1866619    29.579773   -18.977593    -225.0993    29.159498   -20.486144    3.1671172     30.55127   -8.9783341   -225.07478    29.745473   -10.314668    198.45771    28.577586    -20.29754  -0.52695203  -0.18043557    -438.3863 
   12400    461.01254    2845.0681    3214.2874   -558.94861    314.63334    3.2156854    29.489078    -19.01065   -225.12282    29.076794   -20.521554     3.221015    30.455545   -9.0248993   -225.10464    29.672081   -10.357052     198.4261    28.532217    -20.26718  -0.52674432  -0.18029294   -438.38683 
   12500    461.01254    2822.3314    3270.7687   -583.18334    314.68848    3.2428031    29.408722   -19.035514   -225.11855    29.008435   -20.512912     3.273235    30.390557   -9.0290391   -225.11521    29.620697   -10.341976    198.40562    28.488337   -20.269475  -0.52653662  -0.18015031   -438.38737 
   12600    461.01254    2773.7977    3249.2147   -566.26742    314.86053    3.2650102    29.328559   -19.027548   -225.09904    28.957485   -20.516371    3.2922303    30.316983   -9.0090758   -225.11072    29.595375    -10.35218    198.39285    28.454743   -20.246695  -0.52632891  -0.18000768    -438.3879 
   12700    461.01254    2773.0172    3313.3795   -559.20213    314.81213     3.293215    29.267493   -18.997452   -225.07249    28.876719   -20.525373    3.3324661    30.259334   -8.9966632   -225.10612    29.544318   -10.359908    198.37072    28.423497   -20.234246   -0.5261212  -0.17986505   -438.38843 
   12800    461.01254    2769.6001    3391.7773   -529.48755    314.48913    3.3097139    29.216772   -19.006357   -225.07977    28.825335   -20.504563    3.3542978    30.182184   -9.0137818   -225.11338    29.448069   -10.322615     198.3642    28.400138   -20.228858  -0.52591349  -0.17972242   -438.38897 
   12900    461.01254    2739.0597    3362.1035   -577.75255    315.13638    3.3283932    29.156544   -19.033738   -225.08141    28.769987   -20.468512    3.3914502    30.123713   -9.0278507   -225.09955    29.383197   -10.292662    198.39386    28.344167   -20.229036  -0.52570579  -0.17957979    -438.3895 
   13000    461.01254    2749.2367    3368.1294   -529.42484    315.25912    3.3307222    29.065722   -19.063599   -225.06282    28.729913   -20.461569     3.400669    30.049611   -9.0271446   -225.08445    29.330538     -10.2963    198.42024    28.297748   -20.246199  -0.52549808  -0.17943716   -438.39003 
   13100    461.01254    2732.3548    3417.2936   -488.90574    315.04071    3.3373655     28.95301    -19.06358   -225.08241    28.681122   -20.454249    3.3901636    29.953594   -9.0356469   -225.10403    29.277678   -10.298359    198.41597    28.262799   -20.237552  -0.52529037  -0.17929453   -438.39057 
   13200    461.01254    2656.2988    3454.7753   -513.50376    315.22704    3.3322204    28.871101   -19.074113   -225.05607    28.599579    -20.47505    3.3594196    29.845833   -9.0667648   -225.07305    29.187689   -10.339623    198.41622    28.230122   -20.236461  -0.52508266   -0.1791519    -438.3911 
   13300    461.01254    2694.8095    3464.4427   -504.52057    315.13652    3.3354667    28.804539   -19.101316   -225.04737    28.541103   -20.447575    3.3917079    29.763787   -9.0824576   -225.04764    29.152962   -10.303158    198.43921    28.179108   -20.244456  -0.52487496  -0.17900927   -438.39163 
   13400    461.01254    2624.8881    3501.1925   -556.31858    315.03552    3.3363861    28.720176   -19.103284     -225.051    28.487149   -20.438496     3.393327    29.721932   -9.0919478   -225.06156    29.115587   -10.269851     198.4654    28.093977   -20.264026  -0.52466725  -0.17886664   -438.39217 
   13500    461.01254     2572.379     3528.267   -538.72774    314.61341    3.3472533     28.64341    -19.09994   -225.04588    28.416987   -20.427806    3.4131166    29.628899   -9.1184033   -225.05269    29.072954   -10.251783    198.48881    28.025857   -20.268327  -0.52445954  -0.17872401    -438.3927 
   13600    461.01254    2544.3118    3506.4693   -542.96255    315.09926    3.3622332    28.580898   -19.101333   -225.01836    28.343189   -20.390637    3.4163721    29.579081   -9.1235235    -225.0274    29.040154    -10.22046    198.51664    27.954517   -20.263542  -0.52425183  -0.17858138   -438.39323 
   13700    461.01254    2530.4126    3511.1842   -556.39596    315.09817    3.3540931    28.524359   -19.065603   -224.99514    28.290986   -20.360722    3.4227164    29.531264   -9.0671067   -225.00919    28.990296   -10.201922    198.54773    27.883316   -20.241927  -0.52404413  -0.17843875   -438.39377 
   13800    461.01254    2479.1098    3532.3268   -532.38805    315.41798    3.3448493    28.497629   -19.107082   -224.97484    28.262991   -20.306354    3.3925159    29.490581   -9.0849459   -224.98264    28.953787   -10.160637    198.57074    27.796685   -20.241298  -0.52383642  -0.17829612    -438.3943 
   13900    461.01254    2420.0592    3578.5081   -510.89416    315.41809    3.3622279    28.453284   -19.136573   -224.93755    28.213173   -20.299371     3.410472    29.429726   -9.1193811     -224.939    28.911338   -10.109009    198.61409    27.757375   -20.237885  -0.52362871  -0.17815349   -438.39483 
   14000    461.01254    2435.1626    3583.9844   -479.90617    315.19524    3.3546328    28.415614   -19.170826   -224.90028    28.158962   -20.299732     3.378165    29.397361   -9.1633631    -224.8899    28.847859   -10.110569    198.63606    27.722628   -20.228448  -0.52342101  -0.17801086   -438.39537 
   14100    461.01254    2429.5786    3639.6238   -489.52203    315.45273    3.3645591    28.368592     -19.1846   -224.86155    28.080682    -20.28535    3.4067335    29.367757   -9.1850642   -224.86456    28.793928   -10.110373    198.65609    27.648609   -20.214394   -0.5232133  -0.17786823    -438.3959 
   14200    461.01254    2433.9938    3669.4797     -454.979    315.40026    3.3759834    28.293174   -19.191882   -224.81787    28.013726   -20.258995     3.413301    29.289637   -9.1706339   -224.82096     28.73347   -10.108391    198.66209     27.57609   -20.191401  -0.52300559   -0.1777256   -438.39644 
   14300    461.01254    2421.0346    3664.9024   -406.79115    315.39204    3.3912451     28.19064   -19.216911   -224.77338    27.931127   -20.246172    3.4216564    29.166101   -9.2087827   -224.76841    28.634653   -10.101667      198.683    27.522425   -20.154287  -0.52279788  -0.17758297   -438.39697 
   14400    461.01254    2372.1105    3713.1218   -446.20299    315.77617    3.3875314    28.098808   -19.230581   -224.72878    27.833645   -20.205909    3.4374024    29.084218   -9.2417058   -224.72588    28.506173   -10.052157    198.70091     27.45341   -20.125988  -0.52259018  -0.17744034    -438.3975 
   14500    461.01254    2344.6307    3767.5782   -435.36354    315.12603    3.3853577    27.968444   -19.241998   -224.72967    27.747478   -20.201729    3.4243288    28.937743   -9.2329323    -224.7204    28.400204   -10.044488    198.73512      27.3937    -20.11888  -0.52238247  -0.17729771   -438.39804 
   14600    461.01254    2319.8512    3706.5841   -455.95595    315.27486    3.3803928    27.893235   -19.258243   -224.73856    27.689288   -20.194101    3.4317651    28.814341   -9.2524125   -224.74038    28.345642   -10.029639    198.76681    27.368378   -20.118775  -0.52217476  -0.17715508   -438.39857 
   14700    461.01254    2265.1603     3730.466   -519.08407    315.62317    3.3683071    27.806184   -19.226406   -224.72062     27.62782   -20.177852    3.4224744    28.717942   -9.2157966   -224.72331    28.281581   -9.9894919    198.80842     27.27042   -20.093313  -0.52196705  -0.17701245    -438.3991 
   14800    461.01254    2227.5438    3758.1062    -503.0476    315.82977    3.3724749    27.718258   -19.220864    -224.7022    27.594683   -20.166047    3.4123167    28.651867   -9.1994039   -224.70735    28.246573   -9.9592176    198.82078    27.196711   -20.049966  -0.52175935  -0.17686982   -438.39964 
   14900    461.01254    2223.6978     3836.328   -455.14409    315.62614    3.3877849    27.583097   -19.187167   -224.66428    27.522771   -20.135873    3.4255612    28.536539   -9.1649462   -224.65738    28.172478   -9.9661789    198.83341    27.151514   -20.043544  -0.52155164  -0.17672719   -438.40017 
   15000    461.01254    2170.1174    3857.2406   -522.27555    315.79137    3.3644622    27.472693   -19.181709   -224.62208    27.469371   -20.145572    3.3952337    28.421746   -9.1534966   -224.60928    28.101738    -10.00427     198.8292    27.060321   -20.013059  -0.52134393  -0.17658456    -438.4007 
   15100    461.01254    2069.2678    3812.6073   -524.06326    315.83038    3.3890576    27.384857   -19.187073   -224.59706    27.405934   -20.159467    3.4468612    28.348347   -9.1575713   -224.58016    28.042857   -10.046913    198.83811    26.977084   -19.995396  -0.52113622  -0.17644193   -438.40124 
   15200    461.01254    2049.2146    3891.9202   -536.20869    315.79286    3.4139378    27.288619   -19.173247   -224.56641    27.340873   -20.158532    3.4780165    28.256831   -9.1166435   -224.55588    27.969477   -10.025469    198.84368    26.932239    -20.01582  -0.52092852   -0.1762993   -438.40177 
   15300    461.01254    2049.1122    3900.3383   -528.32732    315.12108     3.434059    27.208161   -19.173473   -224.55419    27.288764   -20.159339     3.498829    28.175742   -9.1471534   -224.55242    27.928112   -10.005481    198.83724    26.830097   -20.029182  -0.52072081  -0.17615667    -438.4023 
   15400    461.01254    2006.0632    3910.0055   -554.92847    316.09427    3.4484219    27.099412    -19.20715   -224.54471    27.234131   -20.147194    3.5185303    28.051684   -9.2202116    -224.5308    27.871611   -9.9768266    198.85901    26.726188   -20.065672   -0.5205131  -0.17601404   -438.40284 
   15500    461.01254    1969.4384    3938.9557   -563.64615    315.90302    3.4402473    26.993688   -19.246652    -224.5038      27.2114   -20.124262    3.4828763    27.958981   -9.2661124   -224.51138    27.840826   -9.9513627    198.85107    26.649634   -20.053735  -0.52030539  -0.17587141   -438.40337 
   15600    461.01254    1924.3273    3975.0741    -558.5849    315.91468    3.4490436    26.882074    -19.27281   -224.49208    27.177948   -20.093027    3.5002449    27.877589   -9.3017189   -224.49567    27.814866   -9.9513352    198.86357    26.578099   -20.035174  -0.52009769  -0.17572878    -438.4039 
   15700    461.01254    1901.3531    3993.8119    -564.0041    315.75987    3.4544918    26.776819    -19.30352   -224.49647    27.121149   -20.073568    3.4934434    27.765402   -9.3081861   -224.51003     27.74907    -9.943998    198.86704    26.532864   -20.037887  -0.51988998  -0.17558615   -438.40444 
   15800    461.01254    1837.5156    4013.7013   -566.75233     315.7968    3.4422714    26.653215   -19.283956   -224.48736    27.084319   -20.077042    3.4580338    27.614188   -9.2757946   -224.49275    27.684637   -9.9238223    198.89025    26.470298   -20.059759  -0.51968227  -0.17544352   -438.40497 
   15900    461.01254    1889.3678    4058.2264   -555.68359    315.63144    3.4652279     26.57422    -19.27322    -224.5177    27.040771   -20.069851    3.4866097    27.530402   -9.2494788   -224.52448    27.651357   -9.9072133    198.90676    26.421324   -20.043066  -0.51947457  -0.17530089   -438.40551 
   16000    461.01254    1844.6916    4078.2061   -568.01967    315.56065     3.479828    26.509089   -19.244158   -224.52746    27.004021   -20.071892    3.4845801     27.44732   -9.2164849   -224.53227    27.621963   -9.9008986    198.91946    26.365413   -20.005008  -0.51926686  -0.17515826   -438.40604 
   16100    461.01254    1778.5316    4114.7817   -554.14672     315.8879    3.5047972    26.430216   -19.270953   -224.54602    26.936937   -20.044087    3.5076598     27.34591   -9.2562609   -224.56604    27.588022   -9.8751443    198.94249    26.288127   -19.981171  -0.51905915  -0.17501563   -438.40657 
   16200    461.01254    1710.8589    4159.4533   -530.73786    315.96983    3.5100491    26.286636   -19.267454   -224.55052    26.880365    -20.03527    3.5179492      27.2074    -9.249153   -224.55883    27.546572   -9.8543896    198.95513    26.220774   -19.995921  -0.51885144    -0.174873   -438.40711 
   16300    461.01254    1703.8908    4129.2188   -509.91927    316.15186    3.5481204    26.156008   -19.284023   -224.54156    26.799274   -20.036446    3.5552781    27.046723   -9.2490189   -224.53125    27.488963   -9.8627681     198.9605    26.163765   -19.996051  -0.51864374  -0.17473037   -438.40764 
   16400    461.01254    1702.2902    4182.2808   -521.53821    315.89712    3.5658993    26.051152   -19.246825   -224.53445    26.694286   -20.029296     3.594243    26.950658   -9.2368538   -224.51556     27.39336   -9.8617463    198.95843    26.120056   -19.969906  -0.51843603  -0.17458774   -438.40817 
   16500    461.01254    1659.3796    4230.5015   -512.95612    315.96027    3.5981188    25.955386   -19.229251    -224.5612    26.604586   -20.056776    3.6430327    26.858604   -9.2186999   -224.53347    27.313019   -9.8924155    198.95089    26.051791   -19.958074  -0.51822832  -0.17444511   -438.40871 
   16600    461.01254    1614.0929    4306.3915    -551.8324    316.06789    3.6118228    25.843854    -19.25296   -224.56286    26.499633   -20.069053    3.6734913    26.742784   -9.2322043   -224.54991     27.21068    -9.935676    198.94805    25.974609   -19.955015  -0.51802061  -0.17430248   -438.40924 
   16700    461.01254    1606.4632    4324.7032   -536.90711    315.72022    3.6351937    25.758499   -19.269407   -224.55954    26.407377   -20.074403    3.7095466    26.685512    -9.237444   -224.54453    27.109618   -9.9347151    198.94353    25.896449   -19.937956  -0.51781291  -0.17415985   -438.40977 
   16800    461.01254    1557.2107    4282.1224    -452.1408    316.32542    3.6343305     25.68435   -19.277878    -224.5645    26.317475   -20.092572    3.7039324     26.61744   -9.2656501   -224.54782    26.996422   -9.9242534    198.93067    25.830424   -19.914246   -0.5176052  -0.17401722   -438.41031 
   16900    461.01254    1561.2831     4382.726    -454.0552    315.87186    3.6340468    25.579451   -19.290236   -224.55225    26.215566   -20.080668    3.6963246    26.533145   -9.3154974   -224.54331    26.849788   -9.9032036    198.91789    25.759169   -19.909836  -0.51739749  -0.17387459   -438.41084 
   17000    461.01254    1513.8437    4418.1342    -432.7703    316.07624    3.6691784    25.534387   -19.297384   -224.55382    26.116964   -20.090309    3.7321211    26.450012    -9.325798   -224.54511    26.744261   -9.9312143    198.90826    25.682715   -19.926012  -0.51718978  -0.17373196   -438.41137 
   17100    461.01254    1564.6849    4491.4431   -387.51573    315.55287    3.6346136    25.449064   -19.290808   -224.55229    26.026036    -20.06297    3.6835875    26.388228   -9.3082625   -224.57179    26.662787   -9.9223153    198.90767    25.573363   -19.931132  -0.51698208  -0.17358933   -438.41191 
   17200    461.01254    1479.9592    4502.4854   -354.67984    315.76396    3.6677474    25.380244   -19.285591   -224.55766    25.935613   -20.048051    3.7120597     26.34508   -9.2781168   -224.53668    26.593382   -9.8803599    198.90077    25.530315   -19.941819  -0.51677437   -0.1734467   -438.41244 
   17300    461.01254    1446.1393    4515.4826   -318.61222    316.09413    3.6924041      25.3084   -19.280119   -224.58155    25.832704   -20.076337    3.7178379    26.279962   -9.2492294   -224.56312    26.486289   -9.8808663    198.89439    25.447936   -19.962383  -0.51656666  -0.17330407   -438.41297 
   17400    461.01254    1402.6693     4590.313   -313.55823     316.1939    3.6931273    25.240157   -19.254683   -224.58721     25.75424   -20.079482    3.7136741    26.207324   -9.2300078   -224.59213    26.400034   -9.8905983    198.89082    25.362222   -19.918292  -0.51635896  -0.17316144   -438.41351 
   17500    461.01254    1404.5067    4635.5391   -218.06066    315.89054    3.7076297    25.144181   -19.262339   -224.57923    25.665448   -20.111351    3.7344294    26.097324   -9.2601627   -224.60967    26.269241   -9.9507665    198.88813    25.280882   -19.929796  -0.51615125  -0.17301881   -438.41404 
   17600    461.01254    1381.2833     4754.565    -277.3344    316.12377    3.7258924    25.061366   -19.276676   -224.59331    25.588255   -20.072681    3.7563543    26.008616   -9.2902039    -224.6226    26.197796   -9.9521237    198.90929    25.206552   -19.932461  -0.51594354  -0.17287618   -438.41458 
   17700    461.01254    1381.9265    4746.7556   -213.13457    316.22604    3.7133248    24.986949   -19.286118   -224.60104    25.524716    -20.03348    3.7393486    25.962551   -9.2760692   -224.63978    26.143678   -9.9097181    198.92651    25.072116    -19.91909  -0.51573583  -0.17273355   -438.41511 
   17800    461.01254    1352.6099    4793.2541   -195.32632    316.11249    3.7091282    24.877305   -19.287243    -224.5905    25.426914    -20.03208    3.7281142    25.862284   -9.2903795   -224.61488    26.030617   -9.8799498    198.92819    24.939129   -19.911644  -0.51552813  -0.17259092   -438.41564 
   17900    461.01254    1366.0561    4852.3321   -125.08277    315.95185    3.7202645    24.779282   -19.277945   -224.57232    25.327706   -20.045591    3.7504395    25.784585   -9.2947244   -224.59048    25.955549   -9.8641725    198.92264    24.830596    -19.95982  -0.51532042  -0.17244829   -438.41618 
   18000    461.01254    1324.2764    4886.3908   -151.63927    316.42039    3.7457983    24.680396   -19.304472   -224.56683    25.230129   -20.023402    3.7593486    25.668203   -9.3168512    -224.5682    25.847038   -9.8424975    198.92524    24.753149   -19.987139  -0.51511271  -0.17230566   -438.41671 
   18100    461.01254    1314.9803    4979.4874   -78.245306    316.00162    3.7484866    24.578211   -19.292288   -224.55126    25.148114   -20.015632    3.7783529    25.571476    -9.318175   -224.55197    25.735246   -9.8428353    198.92042    24.688709   -20.023342    -0.514905  -0.17216303   -438.41724 
   18200    461.01254    1283.0699    4976.1249   -44.233523    316.26491    3.7228559    24.486565   -19.304557   -224.52518    25.080172   -20.036244     3.739546    25.479134   -9.3339467   -224.51757    25.653652    -9.850616    198.92831    24.599326   -20.031528   -0.5146973   -0.1720204   -438.41778 
   18300    461.01254    1254.2726    5038.2858    7.1580125    316.21273    3.7237806    24.404328    -19.28624   -224.51697    25.048962   -20.050259    3.7231757     25.37623    -9.287747   -224.48911    25.612755    -9.888936    198.93734    24.493102   -20.037546  -0.51448959  -0.17187777   -438.41831 
   18400    461.01254    1247.7269    5048.0877    7.9935425    316.35612    3.6982545    24.316694   -19.319995   -224.50717    24.973951   -20.030126    3.7146127    25.280334   -9.3062411   -224.47141    25.548539   -9.8705132    198.97056    24.392978   -20.024529  -0.51428188  -0.17173514   -438.41884 
   18500    461.01254    1196.2736    5107.7787    71.790596    316.43398    3.6905031    24.222538   -19.343337   -224.49835    24.907276   -20.035726    3.7212446    25.174688   -9.3249192   -224.48148    25.495005   -9.8633088    198.98452    24.306018   -20.001033  -0.51407417  -0.17159251   -438.41938 
   18600    461.01254    1218.6751    5112.1211    172.69729    316.37205    3.6986348    24.153738    -19.36824   -224.49787    24.837618   -20.030969    3.7169752    25.093755   -9.3645871   -224.48179    25.400919   -9.8576081    198.99182    24.231954   -20.002751  -0.51386647  -0.17144988   -438.41991 
   18700    461.01254    1206.2055    5195.3469    173.69174    316.54396    3.6832451    24.099312   -19.436202   -224.49069    24.760426   -20.061134     3.691062    25.047579   -9.4184383   -224.48527    25.337084   -9.8847071    199.02765    24.146741    -20.00942  -0.51365876  -0.17130725   -438.42044 
   18800    461.01254    1151.8297    5270.0715     212.0144    316.20183    3.6683524    23.985395    -19.40856   -224.46045    24.694976   -20.078051    3.6506649    24.931012   -9.3977038   -224.46311    25.300235   -9.8899223    199.04741    24.028738   -20.007131  -0.51345105  -0.17116462   -438.42098 
   18900    461.01254     1147.602    5296.8963    182.72585    316.61336    3.6562529    23.887657   -19.412188   -224.46606    24.611126   -20.084752    3.6134789    24.829456    -9.406558   -224.46854    25.206463   -9.9047927    199.06486    23.950373   -20.018232  -0.51324335  -0.17102199   -438.42151 
   19000    461.01254    1150.0288    5321.3993     193.9042    316.47372    3.6650838    23.820753   -19.410068   -224.44507    24.531031   -20.104936    3.6430442    24.773024    -9.419013   -224.43104    25.150192   -9.9565028    199.08735    23.878296   -20.064605  -0.51303564  -0.17087936   -438.42204 
   19100    461.01254    1157.5311    5388.9384    237.42957    316.34475    3.6347717    23.718447   -19.427337   -224.43499    24.439403   -20.107579    3.6272523    24.675233   -9.4279004   -224.44006    25.086063   -9.9242806    199.09079    23.799505   -20.100005  -0.51282793  -0.17073673   -438.42258 
   19200    461.01254    1099.3702    5384.6657    225.28427    316.69659    3.6054306    23.678434   -19.474998   -224.41709    24.390054   -20.144156    3.6047548    24.641396   -9.4852452   -224.41309    25.011011   -9.9600901    199.11122    23.695637   -20.109518  -0.51262022   -0.1705941   -438.42311 
   19300    461.01254    1131.9877    5441.7135    243.49776    316.45159    3.5908131    23.590137   -19.473751   -224.39095    24.320713   -20.166928    3.5755661    24.516736   -9.4979776   -224.39126    24.899036   -10.007847    199.11419    23.616338   -20.115569  -0.51241252  -0.17045147   -438.42365 
   19400    461.01254    1083.5715    5520.1215    311.20464    316.54389    3.5873241    23.568009   -19.503339   -224.39488    24.246399   -20.191212    3.5819031    24.497528   -9.5259617    -224.3897    24.836958   -10.029502     199.1108    23.547975    -20.14156  -0.51220481  -0.17030884   -438.42418 
   19500    461.01254    1041.6886    5532.6112    306.48307    316.82013    3.5870324    23.506181   -19.519781   -224.38981    24.164154   -20.161131    3.5899881    24.420401   -9.5179466   -224.38828     24.74284   -9.9932671    199.12275    23.484487   -20.186689   -0.5119971  -0.17016622   -438.42471 
   19600    461.01254    1018.3197     5594.117    336.21637    316.43019    3.5702643     23.42235   -19.532484   -224.38972    24.111403   -20.131008    3.5723978    24.335939   -9.5385115    -224.3703    24.683967   -9.9477132    199.13537    23.406029   -20.226585  -0.51178939  -0.17002359   -438.42525 
   19700    461.01254    1049.8544    5596.0299      309.911    316.72376    3.5712783    23.361624   -19.559503   -224.39122    24.047015   -20.110361    3.5949288    24.285788   -9.5579956   -224.34931    24.644722   -9.9255396    199.13005    23.341329   -20.237068  -0.51158169  -0.16988096   -438.42578 
   19800    461.01254    1046.8368    5656.7463    363.57015    316.39592    3.5786414    23.297945   -19.548169   -224.39561    23.978701   -20.136877    3.5988566    24.241488   -9.5388409   -224.34447    24.614679   -9.9490102    199.10723    23.294058   -20.210337  -0.51137398  -0.16973833   -438.42631 
   19900    461.01254    1013.6724    5694.9693     372.8601    316.49266    3.5949499    23.229616   -19.547016   -224.39627    23.915503   -20.180769    3.6072299    24.162403   -9.5291423   -224.35602    24.548848   -9.9984769    199.10306    23.251137   -20.196117  -0.51116627   -0.1695957   -438.42685 
   20000    461.01254    1018.9044    5715.9454    343.39117    316.64288    3.5923271    23.206699   -19.541692   -224.40151    23.824318   -20.198469    3.6057908    24.175798   -9.5511495   -224.36853    24.451764   -10.020176    199.08753    23.217569   -20.209986  -0.51095856  -0.16945307   -438.42738 
   20100    461.01254    985.09126    5731.6674    384.27675    316.74764    3.5725081    23.151799   -19.575452   -224.43924     23.71404   -20.242413    3.6002907    24.176198   -9.5599251    -224.4124    24.341091   -10.053351    199.07489     23.13509   -20.217863  -0.51075086  -0.16931044   -438.42791 
   20200    461.01254    953.47061    5736.7733    392.24207     317.0501    3.5884542    23.115595   -19.618388   -224.46475    23.639662   -20.312671    3.6091418    24.137945   -9.5992237   -224.44066    24.321038    -10.14767     199.0732    23.062529    -20.23498  -0.51054315  -0.16916781   -438.42845 
   20300    461.01254    917.67897    5844.7034    349.17134    316.80709    3.6254018    23.054924   -19.631562   -224.44126    23.551079   -20.339383    3.6570894    24.084527   -9.6343941   -224.41411    24.226675   -10.181573    199.04993    22.957304   -20.229765  -0.51033544  -0.16902518   -438.42898 
   20400    461.01254    910.14561    5849.8209    385.75019      316.661    3.6270728      23.0028   -19.653376   -224.43489     23.46433   -20.350166    3.6656236     24.02198   -9.6794607   -224.42555    24.134433   -10.198084     199.0268    22.888772   -20.216965  -0.51012773  -0.16888255   -438.42951 
   20500    461.01254    877.02643    5828.1444    458.93974    316.88588    3.6137854    22.935253   -19.656041   -224.42038    23.361357   -20.382757    3.6494148    23.959109   -9.7025878   -224.39285    24.006152   -10.257233    198.98457    22.824567   -20.237538  -0.50992003  -0.16873992   -438.43005 
   20600    461.01254    871.09775    5902.7583    479.13727    316.52921    3.6213991    22.836248   -19.655141   -224.40692    23.243877   -20.440891    3.6527127    23.827066   -9.6822554   -224.38482    23.900782   -10.314836     198.9774    22.763853   -20.253308  -0.50971232  -0.16859729   -438.43058 
   20700    461.01254      825.731     5924.512    467.28474    316.49628    3.6269325    22.780303   -19.649829   -224.40906    23.170306    -20.48775    3.6611025    23.743572   -9.6552488   -224.39038    23.830991   -10.328772    198.95832    22.719199     -20.2424  -0.50950461  -0.16845466   -438.43111 
   20800    461.01254    792.49148    5929.9458    428.00622    317.04792    3.6302309    22.730749   -19.625597   -224.43126    23.095831   -20.487496    3.6672091      23.6856   -9.6069772   -224.42146    23.792887   -10.326342    198.94656    22.645323   -20.229503  -0.50929691  -0.16831203   -438.43165 
   20900    461.01254    755.88555    6005.3384    402.47196    316.32024    3.6706104    22.676952   -19.626519    -224.4303    23.034402   -20.464771    3.7140617    23.605551   -9.5889082   -224.43163    23.738156   -10.318862    198.93028    22.545743   -20.241885   -0.5090892   -0.1681694   -438.43218 
   21000    461.01254    742.59707    6004.2741    428.06387    316.55668    3.6838086    22.606027   -19.682119    -224.4439    22.949011   -20.464831    3.7371186     23.51686   -9.6660786   -224.43565    23.653289   -10.305987    198.92595    22.426386   -20.248211  -0.50888149  -0.16802677   -438.43271 
   21100    461.01254    713.19362    5992.6786    428.82541    316.59637    3.6810615    22.509854    -19.70376   -224.46126     22.88171    -20.46339    3.7246475    23.390293    -9.683097   -224.46705     23.57974   -10.315005    198.93252    22.310829   -20.287399  -0.50867378  -0.16788414   -438.43325 
   21200    461.01254    657.25094    6011.6117    447.47898    316.55446    3.7145499    22.456891   -19.662552   -224.48676    22.766757   -20.464502    3.7615072    23.350321    -9.665896   -224.49727    23.434111    -10.31799    198.93657    22.217112   -20.309946  -0.50846608  -0.16774151   -438.43378 
   21300    461.01254     632.0983    6007.5185    464.59476    316.58607    3.7351543    22.368016   -19.632846    -224.5009    22.675661   -20.453616    3.7796689    23.272521   -9.6238834   -224.49561    23.338419   -10.280145    198.93633    22.097179    -20.30849  -0.50825837  -0.16759888   -438.43432 
   21400    461.01254     595.6199     5996.193    481.06168    316.31101     3.724362    22.272514   -19.629788   -224.50756    22.599143   -20.421002    3.7714875    23.173595   -9.6292386   -224.49372    23.271929   -10.270065    198.93142    22.012906   -20.297911  -0.50805066  -0.16745625   -438.43485 
   21500    461.01254    556.03743     6034.533    459.75134    316.57699    3.7468802    22.199127   -19.612132   -224.51941    22.515519   -20.379496    3.8161654    23.086712   -9.6029117   -224.51301    23.197028   -10.233975     198.9093    21.912433   -20.269774  -0.50784295  -0.16731362   -438.43538 
   21600    461.01254    535.72079    6108.0214    444.22895     316.1473    3.7520454    22.106667   -19.626144   -224.53486    22.406359   -20.386357    3.8171662    22.990591   -9.6284994   -224.51683     23.07788   -10.218704    198.90188    21.847861   -20.243356  -0.50763525  -0.16717099   -438.43592 
   21700    461.01254    495.02847    6129.7723    486.82542    316.26838     3.750936    22.020485   -19.652803   -224.53814    22.311601   -20.403019    3.8052398    22.897789   -9.6463567   -224.52667    22.988326   -10.247242    198.89536    21.746642   -20.276498  -0.50742754  -0.16702836   -438.43645 
   21800    461.01254    459.51997    6088.1487    454.30899    316.62992    3.7622432    21.934577   -19.631187   -224.53874    22.248878   -20.400194    3.8315157    22.846694   -9.5941851   -224.52403     22.89582   -10.237432     198.9026    21.630914   -20.293256  -0.50721983  -0.16688573   -438.43698 
   21900    461.01254    464.66065    6124.3493    437.95685    316.30364    3.7576136    21.888581   -19.623903   -224.54711     22.16792   -20.403745    3.8190196     22.82396   -9.6039002   -224.53867    22.803597   -10.236464    198.89166    21.522185   -20.276831  -0.50701212   -0.1667431   -438.43752 
   22000    461.01254     407.5228    6169.6541    478.91985    316.31574    3.7326151    21.845638   -19.595411   -224.54535    22.092891   -20.388084    3.7829235    22.797248   -9.5920819   -224.53928     22.71497   -10.246736    198.85976    21.428298   -20.288762  -0.50680442  -0.16660047   -438.43805 
   22100    461.01254     407.4095    6177.2484    511.44231    316.37799    3.7244901    21.813806   -19.576332   -224.55194    21.996276   -20.384656    3.7711779    22.769745   -9.5638472   -224.53521    22.612452   -10.230923    198.85945    21.341482   -20.276985  -0.50659671  -0.16645784   -438.43858 
   22200    461.01254    408.49413    6207.5615     600.5188    316.24131     3.713375    21.729953   -19.567666   -224.54702    21.881882   -20.369646    3.7533601    22.663942   -9.5490951   -224.52825    22.523056   -10.235655    198.85073     21.28258   -20.282516    -0.506389  -0.16631521   -438.43912 
   22300    461.01254    327.99401     6257.962    591.80809    316.37564    3.6914003    21.654436   -19.555068     -224.549    21.797286   -20.323797    3.7297468    22.572569   -9.5446897   -224.52963    22.447158   -10.151679    198.84897    21.205339   -20.289171   -0.5061813  -0.16617258   -438.43965 
   22400    461.01254    328.64297    6265.7405    550.81503    316.21442    3.6767379    21.591103    -19.55064   -224.56927    21.700648   -20.305233     3.722933    22.518849    -9.555594   -224.57149    22.355257   -10.137042    198.85345    21.152357   -20.289787  -0.50597359  -0.16602995   -438.44018 
   22500    461.01254    294.60812    6227.3398    520.85791    316.48459    3.6632607    21.528504   -19.541868   -224.58719     21.61549   -20.284335    3.6879707    22.465674   -9.5326494   -224.59956    22.258461   -10.136487     198.8425    21.102608   -20.291837  -0.50576588  -0.16588732   -438.44072 
   22600    461.01254    294.70609    6212.8019    572.70609    316.32747    3.6398926    21.485939   -19.538152   -224.62732    21.510866   -20.258178    3.6933377    22.434655   -9.5388706    -224.6338    22.132361   -10.104832    198.84734    21.014791   -20.261263  -0.50555817  -0.16574469   -438.44125 
   22700    461.01254    223.02997    6304.4154    545.31425    316.35586    3.6135082    21.429787   -19.555887   -224.66453    21.409128   -20.241271    3.6377416    22.370074   -9.5500874   -224.66008    22.028259    -10.07618    198.84186    20.958538   -20.262094  -0.50535047  -0.16560206   -438.44178 
   22800    461.01254    180.46748     6347.639    571.46891    316.22077    3.6059702    21.363385   -19.579369   -224.66757    21.308969   -20.208214     3.636556    22.267654    -9.575157   -224.67484    21.927769    -10.02587    198.83256    20.898725   -20.258185  -0.50514276  -0.16545943   -438.44232 
   22900    461.01254    169.84986    6316.6109    564.76954    316.22458     3.597656    21.324917   -19.592331   -224.68243    21.263411   -20.179966    3.6222154    22.227296    -9.587055   -224.69297    21.891409   -9.9869883    198.81689    20.846966   -20.262028  -0.50493505   -0.1653168   -438.44285 
   23000    461.01254    133.54118    6373.1228    513.13678    316.12627    3.5927431    21.291657    -19.60579   -224.68717    21.182241   -20.182262    3.6231382    22.212745   -9.5669033   -224.72824    21.813563   -9.9772815    198.79993    20.789323   -20.254382  -0.50472734  -0.16517417   -438.44339 
   23100    461.01254    128.86006    6309.5562     578.1321    316.07478     3.602953    21.241174   -19.621341   -224.70824     21.08766   -20.183723    3.6164162    22.165355    -9.618323   -224.73608      21.7014   -10.006473    198.78028    20.702797   -20.262235  -0.50451964  -0.16503154   -438.44392 
   23200    461.01254    105.40703    6412.6098    593.23505    316.00692    3.5914551     21.18857   -19.652059    -224.7273    20.988254   -20.197275    3.6185399    22.103485   -9.6638634   -224.78105     21.59125   -10.032136    198.77678    20.596011    -20.27184  -0.50431193  -0.16488891   -438.44445 
   23300    461.01254     96.96869    6364.8135    610.93769    316.40613    3.5935039    21.142593   -19.685037   -224.71268    20.901492   -20.221006    3.6167924    22.080054   -9.7164137   -224.78264    21.511203   -10.066952    198.76893     20.49703   -20.270395  -0.50410422  -0.16474628   -438.44499 
   23400    461.01254    39.725552    6408.0605    560.27575     316.4069     3.570692    21.071356   -19.684749   -224.71598    20.816456   -20.233231    3.5767969    21.982799   -9.7207865    -224.8135    21.411621   -10.063321     198.7824    20.403964   -20.256167  -0.50389651  -0.16460365   -438.44552 
   23500    461.01254    25.749326    6482.5281     571.7395    316.32375    3.5739334    21.008224   -19.684937   -224.71199    20.756214   -20.258819    3.6138377    21.919377   -9.7260208   -224.81753    21.352268   -10.089127    198.75987    20.325495   -20.242955  -0.50368881  -0.16446102   -438.44605 
   23600    461.01254     65.79474    6547.6626    598.33167    315.50227    3.5745439    20.969414   -19.656806   -224.67229    20.699321   -20.265098    3.6105507    21.892786   -9.6964954   -224.75857    21.273019   -10.081297     198.7606    20.265001   -20.234119   -0.5034811  -0.16431839   -438.44659 
   23700    461.01254   -14.283311    6538.4425    604.44336    316.43435    3.5708804    20.937529   -19.630948   -224.66893    20.620749   -20.276029    3.5892989    21.912998   -9.6329527   -224.72623    21.200837   -10.118542     198.7642    20.189372   -20.246241  -0.50327339  -0.16417576   -438.44712 
   23800    461.01254   -28.677164    6581.1265     696.4635    315.84264    3.5629891    20.910283   -19.576907   -224.65257    20.552742   -20.304408    3.5730704    21.893984   -9.5239402   -224.68654    21.164233   -10.163435    198.76216    20.141992   -20.260405  -0.50306568  -0.16403313   -438.44765 
[...]
  999000    461.01254    1721.1255    5883.3572    23.848574    323.39432    6.1052076    26.216808   -25.329185   -221.91339    26.802889   -25.677687    6.0966252    27.106867    -15.36084   -221.92553    27.530277   -15.540429    201.39777     26.26942   -25.501046    1.5224964    1.2268939   -443.65058 
  999100    461.01254     1732.767    5872.2743    44.040388    323.48334    6.1092578      26.2333   -25.331987   -221.91529    26.787466   -25.675875    6.1163082    27.138885   -15.351123   -221.92002    27.505504   -15.535598    201.39758    26.292936   -25.494706    1.5227041    1.2270366   -443.65111 
  999200    461.01254    1755.2362    5839.6215     86.30436    323.14429    6.0925424    26.246648   -25.341067    -221.9269    26.784462   -25.687452    6.1057299    27.145503   -15.337566   -221.92311    27.488962   -15.548172    201.41287    26.292877   -25.474689    1.5229118    1.2271792   -443.65165 
  999300    461.01254    1733.4228    5890.3425    40.058617    323.62177    6.0967332    26.274286   -25.349128   -221.93344    26.781631   -25.700673    6.1131681    27.195264   -15.364621   -221.91612    27.488869   -15.581078     201.4186    26.305094   -25.469312    1.5231195    1.2273218   -443.65218 
  999400    461.01254    1765.5085       5893.4    119.79452    323.40482    6.0975991     26.29571    -25.35337   -221.92324    26.804237   -25.681008    6.1117526    27.210452   -15.377786   -221.91766    27.500218   -15.577005      201.445    26.348594   -25.447077    1.5233272    1.2274645   -443.65271 
  999500    461.01254    1725.9778    5849.1482    107.05512    323.91428    6.0762678    26.293866   -25.359032   -221.91887     26.80909   -25.665394    6.0952639    27.228186   -15.386069   -221.89672    27.514053   -15.521313     201.4553    26.390978   -25.464883    1.5235349    1.2276071   -443.65325 
  999600    461.01254    1774.0462    5889.1869    29.015294    323.74194    6.0924235    26.305782   -25.373476   -221.91477    26.804374   -25.676258    6.1152546    27.242478   -15.399611   -221.90562    27.528884   -15.521077    201.46883    26.367485   -25.494589    1.5237427    1.2277497   -443.65378 
  999700    461.01254    1763.3005    5861.1944    121.30923    323.53214    6.0800726    26.303169   -25.380652   -221.90013    26.820655   -25.696429     6.084466    27.217486   -15.394738   -221.88092    27.552642   -15.535367    201.47047     26.34341   -25.520021    1.5239504    1.2278924   -443.65431 
  999800    461.01254     1820.213      5844.95    111.23895    323.35651    6.0935321    26.293002   -25.360589   -221.89752    26.814754   -25.685249    6.1164024    27.198265   -15.371735   -221.86762    27.559001   -15.519665    201.47537     26.33518   -25.510969    1.5241581     1.228035   -443.65485 
  999900    461.01254    1768.0761    5838.4231    107.41922    323.57248    6.0836643    26.310807   -25.353694   -221.89289     26.80779   -25.682874    6.1049096     27.20549   -15.371994   -221.85751    27.549408   -15.539972    201.48534      26.3514   -25.537829    1.5243658    1.2281776   -443.65538 
 1000000    461.01254    1767.7698    5848.1512    150.36106    323.26205    6.0978314    26.312027    -25.34633   -221.90092    26.835883   -25.683066    6.1177593    27.203134   -15.374176   -221.87772    27.570808   -15.534101    201.48005    26.358661   -25.560653    1.5245735    1.2283202   -443.65591 
 1000100    461.01254    1798.1373    5854.7458    143.62083    323.48922    6.0843004    26.303216   -25.358539   -221.89322    26.856465   -25.686941     6.103008    27.198709    -15.37783   -221.85543    27.581195   -15.522846    201.45083    26.371827   -25.550781    1.5247812    1.2284629   -443.65645 
 1000200    461.01254    1813.6996    5851.9293    90.209729    323.66377    6.0821868    26.330537   -25.362632   -221.88268    26.876195   -25.689167    6.1152797    27.234853   -15.386078   -221.85752    27.587882   -15.562704    201.42744    26.390516   -25.535205    1.5249889    1.2286055   -443.65698 
 1000300    461.01254    1809.2216    5843.2747     65.60264    323.74559    6.0906849    26.347467   -25.363628   -221.87986    26.895638   -25.685192    6.1245293    27.237246   -15.384785   -221.87186     27.59519   -15.548592     201.4159    26.431169   -25.558252    1.5251966    1.2287481   -443.65751 
 1000400    461.01254    1833.5635    5810.8072    116.59943    323.80131    6.1009736    26.365656   -25.354755   -221.88671     26.90572   -25.694866    6.1346611    27.261821   -15.375142   -221.88016    27.629712   -15.549166    201.39232    26.425142   -25.569974    1.5254043    1.2288908   -443.65805 
 1000500    461.01254    1797.4776      5812.61    151.85383    323.52054    6.0832644    26.380777   -25.341571   -221.90988    26.947587   -25.699635    6.1119588    27.268606   -15.328976   -221.93239    27.675682   -15.553709    201.40511    26.432762   -25.598658     1.525612    1.2290334   -443.65858 
 1000600    461.01254    1857.4592    5854.7146    89.524253    323.62233    6.0792642    26.389862   -25.338157   -221.90206    26.994813   -25.722627    6.0867866    27.307157   -15.343495   -221.89119    27.696417   -15.594997    201.39562    26.423923   -25.619287    1.5258197     1.229176   -443.65911 
 1000700    461.01254    1853.2867     5807.115    117.97566     323.5972     6.070537    26.425765   -25.345867   -221.88788    26.994211   -25.723147    6.0636685    27.345772   -15.355656   -221.88905    27.672981    -15.61328     201.3811    26.440983   -25.565286    1.5260274    1.2293187   -443.65965 
 1000800    461.01254    1876.1199    5795.1701    90.942526    323.93183    6.0625098      26.4304   -25.355254   -221.88056     27.00502   -25.767176    6.0696285    27.342188   -15.388453    -221.8993    27.732711   -15.643486    201.38567    26.459213   -25.524738    1.5262351    1.2294613   -443.66018 
 1000900    461.01254     1846.308    5783.7583    111.03369    323.76576    6.0703571    26.430172    -25.37333   -221.87868     27.00332   -25.767031    6.0284841    27.340071   -15.407688   -221.91967    27.766886    -15.63895    201.40212     26.47156   -25.523327    1.5264428    1.2296039   -443.66072 
 1001000    461.01254    1850.6466    5813.6173    123.94157    323.90724    6.0907168    26.436082   -25.390026   -221.87186     27.02065    -25.73309     6.071111    27.352355   -15.420177   -221.91842    27.777753   -15.615835    201.41959    26.515414   -25.515708    1.5266506    1.2297465   -443.66125 
 1001100    461.01254    1883.7732    5808.4647    92.050108    323.71453    6.1031226     26.44937   -25.391173   -221.88877    27.050123   -25.707977    6.1058188    27.363588   -15.401615   -221.91381    27.785342   -15.583706    201.43873    26.544311    -25.49087    1.5268583    1.2298892   -443.66178 
 1001200    461.01254    1890.3581    5810.6849    123.66833    323.48836    6.1233663    26.463332   -25.401455   -221.87781    27.079484    -25.73573    6.1472343    27.377301   -15.412912   -221.90362    27.811736     -15.5778    201.45225    26.590345   -25.474272     1.527066    1.2300318   -443.66232 
 1001300    461.01254    1917.8577    5798.4164    69.911176    323.62913    6.1256696     26.50883   -25.391956   -221.87362    27.102614   -25.734325    6.1655747    27.422863   -15.398504   -221.87893    27.829378   -15.586143    201.46552    26.580182   -25.474399    1.5272737    1.2301744   -443.66285 
 1001400    461.01254     1925.885    5793.7093    90.712718    323.61523    6.1220994    26.534441   -25.401309   -221.87378    27.124821   -25.697523    6.1349674    27.476794   -15.427154   -221.86604    27.845961   -15.552452    201.48334    26.583501   -25.478596    1.5274814    1.2303171   -443.66338 
 1001500    461.01254    1938.3663    5770.7066    121.40319    323.71262    6.1233351    26.525718   -25.410383   -221.87778    27.142282   -25.675996    6.1218049    27.448186    -15.45218   -221.85888    27.869849   -15.530924    201.47721       26.603   -25.448377    1.5276891    1.2304597   -443.66392 
 1001600    461.01254    1944.8378    5798.2836    122.29262    323.53206    6.1145205    26.559846   -25.445441   -221.84832    27.142406   -25.642998    6.0947404    27.488665   -15.475819   -221.81972    27.875551    -15.50003     201.4824    26.616665   -25.428625    1.5278968    1.2306023   -443.66445 
 1001700    461.01254    1966.2683    5823.2549    175.89124    323.46177    6.1355046    26.558754   -25.483293   -221.83966    27.155588   -25.664264    6.1231502    27.496318   -15.495491   -221.79677    27.918673   -15.516609    201.50341     26.61975   -25.430573    1.5281045     1.230745   -443.66498 
 1001800    461.01254     1981.573    5778.4372    220.05967    323.60397    6.1440232    26.555841   -25.493699   -221.84292    27.195633   -25.648385    6.1256109     27.50843   -15.507702   -221.80717     27.98265    -15.51003    201.49714    26.609659   -25.455848    1.5283122    1.2308876   -443.66552 
 1001900    461.01254    2002.3406    5758.8386    179.15621    323.60679    6.1509822    26.556331   -25.505009   -221.81796    27.232608   -25.640083    6.1281436    27.483261   -15.536673   -221.79958    28.023487   -15.502897    201.48804    26.621431   -25.488316    1.5285199    1.2310302   -443.66605 
 1002000    461.01254    1980.5952    5840.5785    149.60774    323.71011    6.1582603    26.548824   -25.498986   -221.80781    27.242805   -25.613919    6.1621009    27.447218   -15.538407   -221.78678    28.019885   -15.487293     201.4997    26.670256   -25.524098    1.5287276    1.2311728   -443.66658 
 1002100    461.01254    2006.5609    5761.9872    205.80521    323.62413     6.145249    26.556189   -25.470153    -221.8095     27.23025   -25.598428    6.1294613    27.454486   -15.489607   -221.75978    27.973154   -15.480284    201.47402      26.7058   -25.557084    1.5289353    1.2313155   -443.66712 
 1002200    461.01254     2025.559    5763.2071    242.12935    323.80974    6.1747936    26.567592   -25.440915    -221.8156    27.209722   -25.567738    6.1842542    27.464544   -15.456954   -221.77756    27.928994   -15.447468    201.47592    26.707281   -25.510475     1.529143    1.2314581   -443.66765 
 1002300    461.01254    2017.3899    5776.2261    271.21361    323.73318     6.177129    26.606897   -25.462527   -221.80351    27.218642   -25.586452    6.2000605    27.501966   -15.473568   -221.76865    27.952866   -15.449447    201.47742    26.703034   -25.504905    1.5293507    1.2316007   -443.66818 
 1002400    461.01254    2036.6516    5833.0841    200.40932    323.64548    6.1923919    26.634582   -25.472806   -221.77862    27.251916   -25.580723    6.2264275    27.531378   -15.475651   -221.74625    28.020033   -15.423853    201.49327    26.713855   -25.525613    1.5295585    1.2317434   -443.66872 
 1002500    461.01254    2055.5535    5818.6447    219.86167    323.62842    6.2223909     26.63605   -25.455585   -221.79292    27.274476   -25.582261    6.2541809    27.543322   -15.447165   -221.77926    28.044404   -15.419164    201.50812    26.743109   -25.542793    1.5297662     1.231886   -443.66925 
 1002600    461.01254    2103.7067    5796.3643    222.74272    323.67496    6.2407405    26.660098   -25.458925   -221.78653    27.250777   -25.609956    6.2554975    27.549213    -15.44782   -221.76585    27.994085   -15.436262    201.49305    26.768884   -25.549305    1.5299739    1.2320286   -443.66978 
 1002700    461.01254    2066.8336     5794.258    198.54098     323.9432     6.263177    26.693487    -25.46616   -221.78957    27.272584   -25.627772    6.2692362    27.553967   -15.485751   -221.78814     27.99499   -15.476281    201.48837    26.801956   -25.554548    1.5301816    1.2321713   -443.67032 
 1002800    461.01254     2061.893    5769.4725    223.50293    323.67096    6.2739956    26.724922   -25.477006   -221.75978    27.287341   -25.632093     6.278103    27.591899   -15.500495   -221.74959    27.998836   -15.517288    201.50862    26.825201   -25.543307    1.5303893    1.2323139   -443.67085 
 1002900    461.01254    2087.1422    5809.9729    231.10048    323.69603    6.2453535    26.734221   -25.440549   -221.78029    27.286255    -25.67601    6.2558034    27.617907   -15.473554   -221.75212    28.023417   -15.531516    201.51617     26.84829   -25.512073     1.530597    1.2324565   -443.67139 
 1003000    461.01254     2094.757    5789.7005    221.28215    323.77937    6.2611994    26.739793   -25.449211   -221.78044    27.287944   -25.735018    6.2786674    27.619143   -15.466969    -221.7484     28.00641   -15.596845    201.53079    26.858514   -25.504713    1.5308047    1.2325991   -443.67192 
 1003100    461.01254    2085.1952    5772.3064    262.67783    323.68808    6.2624066    26.750012   -25.467279   -221.79081     27.27815   -25.729157    6.2742747     27.64258    -15.46935   -221.77901    27.980109   -15.608677    201.53306    26.871645   -25.489626    1.5310124    1.2327418   -443.67245 
 1003200    461.01254    2133.3181    5779.4293    184.33324    323.84845    6.2333376    26.778474   -25.471083   -221.78144    27.299462    -25.71147    6.2574029    27.716647   -15.451067   -221.79356    28.001824   -15.575356    201.53297    26.900381    -25.50471    1.5312201    1.2328844   -443.67299 
 1003300    461.01254    2139.5545    5795.6034    225.82844    323.37446     6.244629    26.801556   -25.467026   -221.77417    27.332032   -25.736304    6.2393787    27.746586   -15.466609   -221.81199    28.009823   -15.607218    201.56493    26.884133   -25.527623    1.5314278     1.233027   -443.67352 
 1003400    461.01254    2126.9205    5734.0768    267.40487    323.80653    6.2369416    26.809007   -25.481021   -221.79726     27.35753    -25.77549    6.2580818    27.773985   -15.500748   -221.81618    28.039767   -15.648404    201.56918    26.858541   -25.530334    1.5316355    1.2331697   -443.67405 
 1003500    461.01254    2160.4421    5768.9222     295.3078    323.46537    6.2306848    26.830618   -25.497243   -221.80484    27.379983   -25.758873    6.2629084    27.802626   -15.529709   -221.81744    28.070166   -15.627807    201.56025    26.874829   -25.551301    1.5318432    1.2333123   -443.67459 
 1003600    461.01254    2180.2203    5765.1332    309.80272    323.10394     6.243465    26.841482   -25.498093   -221.77619    27.421113   -25.748289    6.2790944    27.794819   -15.532899    -221.7817    28.120468   -15.615056    201.54779    26.895375   -25.547007    1.5320509    1.2334549   -443.67512 
 1003700    461.01254    2145.4562    5796.3768    234.09413    323.57346     6.213474    26.836918   -25.507298   -221.76828    27.449351   -25.730969    6.2523822    27.785344   -15.544298     -221.765    28.162184    -15.59905    201.54984    26.909657   -25.542004    1.5322587    1.2335976   -443.67565 
 1003800    461.01254    2166.2623     5783.286    311.41619    323.53752    6.2354065     26.85977   -25.513102   -221.75912    27.464271   -25.710574    6.2738392    27.786441    -15.52751   -221.73892    28.185793    -15.53534     201.5644    26.948238   -25.549408    1.5324664    1.2337402   -443.67619 
 1003900    461.01254    2154.3991    5787.1667     249.6631     323.8492    6.2496609    26.876284   -25.512269   -221.74806    27.487345   -25.704972    6.2883261    27.785403   -15.527359    -221.7249    28.214637   -15.523058    201.58938    26.932768   -25.539456    1.5326741    1.2338828   -443.67672 
 1004000    461.01254      2146.43    5759.6699    297.46208    323.28465    6.2355217    26.875505   -25.527719   -221.73784    27.505297   -25.692535    6.2602537    27.787218   -15.548942   -221.70644    28.261843   -15.556117    201.59562    26.928064   -25.559363    1.5328818    1.2340254   -443.67725 
 1004100    461.01254    2152.9269    5749.3803    271.36615    323.77481    6.2391268    26.881774   -25.527843   -221.73334    27.520763   -25.690617    6.2757315    27.796636   -15.553915   -221.71372     28.29012   -15.543656    201.60243    26.949448   -25.562867    1.5330895    1.2341681   -443.67779 
 1004200    461.01254    2175.0704    5748.4198    303.38458    323.50963    6.2544732     26.87642   -25.519318    -221.7323     27.53406   -25.745198    6.2819994    27.787946   -15.551613   -221.70262    28.313103   -15.607137    201.58519    26.967577   -25.535568    1.5332972    1.2343107   -443.67832 
 1004300    461.01254    2178.2459    5776.9296    253.14702    323.39923    6.2581326    26.904868   -25.486438   -221.70842    27.573935   -25.723692    6.2769411    27.806361   -15.516482   -221.67613    28.333942   -15.606262    201.59997    26.982953   -25.534091    1.5335049    1.2344533   -443.67885 
 1004400    461.01254    2142.9296     5765.553    198.58559    323.62747    6.2524506    26.915797   -25.469558   -221.69525    27.580263   -25.724665    6.2832496    27.819546   -15.478117   -221.66752    28.358369    -15.60635    201.61364    27.008695   -25.541635    1.5337126     1.234596   -443.67939 
 1004500    461.01254    2195.0086    5745.4028    218.42284    323.15889    6.2568873    26.909468   -25.470861   -221.70285    27.577547   -25.739697     6.255985     27.83196   -15.486186   -221.66288    28.335059   -15.597577    201.60359    26.993878   -25.535385    1.5339203    1.2347386   -443.67992 
 1004600    461.01254    2204.5774     5731.229    218.27028    323.53462    6.2486365        26.93   -25.472756   -221.69987    27.599911   -25.746629    6.2303456    27.833132   -15.495363   -221.66751    28.372649   -15.608095    201.60918    27.007245   -25.542655     1.534128    1.2348812   -443.68046 
 1004700    461.01254    2125.7726    5699.3691    133.48903    323.54455    6.2375307    26.938637   -25.472429   -221.71374    27.604287   -25.747472     6.224566    27.860037    -15.48931   -221.69373    28.370066   -15.613643    201.63511    27.038687   -25.516828    1.5343357    1.2350239   -443.68099 
 1004800    461.01254    2159.8147    5677.7182    167.90117    323.32703    6.2651326    26.933165   -25.456225   -221.66336    27.611707   -25.730519    6.2533243    27.850966   -15.464984   -221.64774    28.360855   -15.606536    201.61938    27.071011   -25.469477    1.5345434    1.2351665   -443.68152 
 1004900    461.01254    2211.6681     5682.884    124.23461    323.46836    6.2653077     26.94056   -25.453184   -221.65374    27.617897   -25.705518    6.2490919    27.865423   -15.466105   -221.64802    28.375696   -15.592189    201.63516    27.117804   -25.456937    1.5347511    1.2353091   -443.68206 
 1005000    461.01254    2177.6441    5688.5636    137.62002    323.45703    6.2534743    26.961643   -25.439065   -221.64052    27.634953   -25.653393    6.2268347    27.865344   -15.447931   -221.63455    28.380989   -15.524987    201.63277    27.124827   -25.464657    1.5349588    1.2354517   -443.68259 
Loop time of 12809.9 on 512 procs for 1000000 steps with 793759 atoms

Performance: 13.490 ns/day, 1.779 hours/ns, 78.064 timesteps/s
99.9% CPU use with 512 MPI tasks x no OpenMP threads

MPI task timing breakdown:
Section |  min time  |  avg time  |  max time  |%varavg| %total
---------------------------------------------------------------
Pair    | 0.42449    | 8325.1     | 9409.4     |2129.6 | 64.99
Neigh   | 0.058813   | 77.098     | 88.457     | 285.1 |  0.60
Comm    | 2.9858     | 1387.3     | 5327.2     |1932.2 | 10.83
Output  | 5.018      | 5.1087     | 6.19       |   2.3 |  0.04
Modify  | 54.386     | 102.78     | 225.18     | 230.8 |  0.80
Other   |            | 2913       |            |       | 22.74

Nlocal:    1550.31 ave 1780 max 0 min
Histogram: 48 0 0 0 0 0 2 14 0 448
Nghost:    4189.9 ave 4771 max 0 min
Histogram: 32 0 16 0 0 0 16 2 14 432
Neighs:    109672 ave 127301 max 0 min
Histogram: 48 0 0 0 0 0 16 0 0 448

Total # of neighbors = 56151971
Ave neighs/atom = 70.7418
Neighbor list builds = 13722
Dangerous builds = 0



Total wall time: 3:34:43
