LAMMPS (16 Feb 2016)
# ------------------------ INITIALIZATION ----------------------------
echo both
#log		log.c
units           metal
dimension       3
boundary        p p p
atom_style      atomic
shell         mkdir  cfg
WARNING: Shell command 'mkdir' failed with error 'File exists' (../input.cpp:1126)
shell         mkdir  dump
WARNING: Shell command 'mkdir' failed with error 'File exists' (../input.cpp:1126)


# ----------------------- ATOM DEFINITION & Force Field -------------
lattice         fcc 3.615 #origin 0.0 0.0 0.0 orient x 1 -1 0 orient y 1 1 -2 orient z 1 1 1
Lattice spacing in x,y,z = 3.615 3.615 3.615
variable        Lx equal 65
variable        Ly equal 3
variable        Lz equal 260
variable        boxLZ equal 270
region          SYSTEM block -${Lx} ${Lx} -${Ly} ${Ly} -${Lz} 0 units lattice
region          SYSTEM block -65 ${Lx} -${Ly} ${Ly} -${Lz} 0 units lattice
region          SYSTEM block -65 65 -${Ly} ${Ly} -${Lz} 0 units lattice
region          SYSTEM block -65 65 -3 ${Ly} -${Lz} 0 units lattice
region          SYSTEM block -65 65 -3 3 -${Lz} 0 units lattice
region          SYSTEM block -65 65 -3 3 -260 0 units lattice
region          BOX block -${Lx} ${Lx} -${Ly} ${Ly} -${boxLZ} 5 units lattice
region          BOX block -65 ${Lx} -${Ly} ${Ly} -${boxLZ} 5 units lattice
region          BOX block -65 65 -${Ly} ${Ly} -${boxLZ} 5 units lattice
region          BOX block -65 65 -3 ${Ly} -${boxLZ} 5 units lattice
region          BOX block -65 65 -3 3 -${boxLZ} 5 units lattice
region          BOX block -65 65 -3 3 -270 5 units lattice
create_box      1 BOX
Created orthogonal box = (-234.975 -10.845 -976.05) to (234.975 10.845 18.075)
  16 by 1 by 32 MPI processor grid
create_atoms    1 region SYSTEM
Created 812760 atoms

delete_atoms     porosity BOX 0.005 32345
Deleted 4091 atoms, new total = 808669

#---------------------------------------------------------------------


pair_style      eam/alloy
pair_coeff  	  * * Cu01.eam.alloy Cu

#----------------------------------------------------------------------
velocity       all create 300.0 16725 mom yes rot yes dist gaussian
fix             1 all npt temp 300 300 0.1 iso 0.0 0.0 2
run      10000
Neighbor list info ...
  1 neighbor list requests
  update every 1 steps, delay 10 steps, check yes
  max neighbors/atom: 2000, page size: 100000
  master list distance cutoff = 7.50679
  ghost atom cutoff = 7.50679
  binsize = 3.75339 -> bins = 126 6 265
Memory usage per processor = 2.15737 Mbytes
Step Temp E_pair E_mol TotEng Press Volume 
       0          300   -2855637.3            0   -2824278.8     1458.706     10133330 
   10000    299.54671   -2823803.7            0   -2792492.5   -3.2261958     10255022 
Loop time of 124.484 on 512 procs for 10000 steps with 808669 atoms

Performance: 6.941 ns/day, 3.458 hours/ns, 80.331 timesteps/s
99.9% CPU use with 512 MPI tasks x no OpenMP threads

MPI task timing breakdown:
Section |  min time  |  avg time  |  max time  |%varavg| %total
---------------------------------------------------------------
Pair    | 35.16      | 80.876     | 88.269     | 109.1 | 64.97
Neigh   | 0.00070024 | 0.23128    | 0.34166    |  10.7 |  0.19
Comm    | 2.7774     | 11.781     | 36.446     | 137.3 |  9.46
Output  | 0.00085902 | 0.00087173 | 0.00089908 |   0.0 |  0.00
Modify  | 25.411     | 30.804     | 84.969     | 177.3 | 24.75
Other   |            | 0.7914     |            |       |  0.64

Nlocal:    1579.43 ave 1808 max 0 min
Histogram: 16 0 0 0 16 0 0 12 154 314
Nghost:    4582.31 ave 5133 max 498 min
Histogram: 16 0 0 13 3 0 16 0 84 380
Neighs:    110830 ave 127823 max 0 min
Histogram: 16 0 0 16 0 0 0 12 170 298

Total # of neighbors = 56744847
Ave neighs/atom = 70.1707
Neighbor list builds = 38
Dangerous builds = 0
unfix 1

fix            2 all nvt temp 300.0 300.0 0.1

run      10000
Memory usage per processor = 2.15737 Mbytes
Step Temp E_pair E_mol TotEng Press 
   10000    299.54671   -2823803.7            0   -2792492.5   -3.2261958 
   20000    300.02843   -2823739.9            0   -2792378.3   -493.81919 
Loop time of 120.589 on 512 procs for 10000 steps with 808669 atoms

Performance: 7.165 ns/day, 3.350 hours/ns, 82.926 timesteps/s
99.9% CPU use with 512 MPI tasks x no OpenMP threads

MPI task timing breakdown:
Section |  min time  |  avg time  |  max time  |%varavg| %total
---------------------------------------------------------------
Pair    | 34.781     | 80.168     | 87.959     | 108.4 | 66.48
Neigh   | 0.00025988 | 0.085176   | 0.20903    |   6.7 |  0.07
Comm    | 2.7458     | 11.736     | 36.877     | 140.3 |  9.73
Output  | 0.00020504 | 0.00021699 | 0.000247   |   0.0 |  0.00
Modify  | 18         | 23.724     | 77.803     | 200.4 | 19.67
Other   |            | 4.875      |            |       |  4.04

Nlocal:    1579.43 ave 1802 max 0 min
Histogram: 16 0 0 0 16 0 0 8 44 428
Nghost:    4585.65 ave 5117 max 498 min
Histogram: 16 0 0 13 3 0 16 0 83 381
Neighs:    110805 ave 127905 max 0 min
Histogram: 16 0 0 16 0 0 0 9 172 299

Total # of neighbors = 56731960
Ave neighs/atom = 70.1547
Neighbor list builds = 14
Dangerous builds = 0
reset_timestep 0
unfix    2
#---------------------- DEFINE Laser GERION and GROUP ----------------
region       R1  block -75  75  INF  INF  INF  5  units box
group        G1 region R1
258123 atoms in group G1
group        G2 subtract all G1
550546 atoms in group G2


#define     temperature/pressure calculation  group
variable    x1atom atom "x>=0  &&  x<4 &&  z>-40 && z<1"     ##NEW!!!!!!!!!!!!
variable    x2atom atom "x>=-234.98  &&  x<-230.98 &&  z>-40 && z<1"
variable    x3atom atom "x>=0  &&  x<4 &&  z>-20 && z<1"
variable    x4atom atom "x>=-234.98  &&  x<-230.98 &&  z>-20 && z<1"
variable    x5atom atom "x>=196  &&  x<200 &&  z>-40 && z<1"

group       x1atom variable x1atom
319 atoms in group x1atom
group       x2atom variable x2atom
275 atoms in group x2atom
group       x3atom variable x3atom
165 atoms in group x3atom
group       x4atom variable x4atom
143 atoms in group x4atom
group       x5atom variable x5atom
329 atoms in group x5atom


compute      COM1x x1atom com
compute      COM2x x2atom com
compute      COM3x x3atom com
compute      COM4x x4atom com
compute      COM5x x5atom com

compute      COMall all com

#Temperature profile
#variable      Tprofile atom 300*(1+(step/5000)*2.5*exp(z/40))
#variable tmp equal "lz"
#variable L0 equal ${tmp}
variable      Tprofile atom  300+600*(step/5000)*exp(z/40)*exp(-x*x/1289)


# ------------------------- SETTINGS ---------------------------------
thermo          100
thermo_style    custom step lx pxx pyy pzz temp c_COM1x[1] c_COM1x[2] c_COM1x[3] c_COM2x[1] c_COM2x[2] c_COM2x[3] c_COM3x[1] c_COM3x[2] c_COM3x[3] c_COM4x[1] c_COM4x[2] c_COM4x[3]  c_COM5x[1] c_COM5x[2] c_COM5x[3] c_COMall[1] c_COMall[2] c_COMall[3]

timestep       0.002


compute dispall all displace/atom
# ---------------- Run Laser Material Interaction --------------------
#dump          1 all custom 1000 dump/z1dump.atom id type x y z c_dispall[1]  c_dispall[2]  c_dispall[3] c_dispall[4]
#dump          2 all cfg 100 cfg/*.cfg mass type xs ys zs
#dump_modify   2 element Al

#relax for 2 PS
#fix           1 all nvt temp 300.0 300.0 0.1
#run  1000
#unfix         1

fix           1  all nve
fix           3temp  all  langevin  v_Tprofile  0  0.1  378411   #TEST ALL
run           5000
Memory usage per processor = 2.53237 Mbytes
Step Lx Pxx Pyy Pzz Temp COM1x[1] COM1x[2] COM1x[3] COM2x[1] COM2x[2] COM2x[3] COM3x[1] COM3x[2] COM3x[3] COM4x[1] COM4x[2] COM4x[3] COM5x[1] COM5x[2] COM5x[3] COMall[1 COMall[2 COMall[3 
       0    471.82374   -495.79715   -469.13802   -516.52239    300.02843    2.3205679   -1.0686157   -19.463166   -233.23401   -0.9206306   -19.546886    2.3409549   -0.9801047   -9.4773313   -233.23643  -0.89145674   -9.5255052    198.25106  -0.79599985   -19.136257  -0.89717988  -0.90779207   -469.92236 
     100    471.82374   -513.85674   -452.65124   -516.81687     299.7954     2.314594   -1.0718045   -19.453782   -233.24109  -0.93050398    -19.52608    2.3136319   -0.9701744    -9.449228   -233.26154  -0.88048868   -9.5311655    198.24799  -0.77962658   -19.142464  -0.89723519  -0.90725496   -469.92312 
     200    471.82374   -506.46275   -505.50866   -539.00917    300.12677    2.3085375   -1.0616662     -19.4592   -233.24784  -0.90994204   -19.537954    2.3212433   -0.9664545   -9.4467017   -233.24115  -0.86822901   -9.5414894    198.23732  -0.77787648   -19.122257  -0.89774243  -0.90695337   -469.92353 
     300    471.82374   -509.79325   -497.54936   -547.26404    300.44515    2.2906826   -1.0756746   -19.459199   -233.26452  -0.91273085   -19.546141    2.3037639    -0.984545   -9.4633301   -233.27081  -0.86953375   -9.5608994    198.25547  -0.78035878   -19.128838  -0.89790279  -0.90694536   -469.92375 
     400    471.82374     -470.178   -473.12133    -517.5173    300.19963    2.2924703   -1.0713955   -19.479933   -233.25633  -0.90445365    -19.56789    2.3194934   -0.9578217   -9.4709231   -233.24336  -0.88419475   -9.5915422    198.26659  -0.78510959   -19.107094  -0.89796345  -0.90648214    -469.9242 
     500    471.82374   -479.50672   -485.70995    -528.2707    300.21809    2.2981032   -1.0786224   -19.487535   -233.24289  -0.90315455   -19.544408    2.3022035  -0.97188313   -9.4708906    -233.2278  -0.87428476   -9.5698944    198.26158  -0.79626521   -19.114907  -0.89832005  -0.90646639   -469.92403 
     600    471.82374   -441.03758   -454.77361   -498.84209    300.17929    2.2879307   -1.0615236   -19.483316   -233.24575  -0.90787786   -19.550162     2.274759  -0.95553186    -9.487479   -233.22886  -0.88322594   -9.5808586    198.25827  -0.78112822   -19.118775  -0.89757796  -0.90663971   -469.92364 
     700    471.82374   -445.34663   -432.46348   -506.48021    300.48408    2.2939041   -1.0529668   -19.480214   -233.24437   -0.9261235   -19.520372    2.2923384  -0.93849068   -9.4839145   -233.22593  -0.89992753   -9.5401756    198.25275  -0.76454763   -19.112735  -0.89743591  -0.90594439    -469.9232 
     800    471.82374   -462.58794   -432.10192   -506.25447    300.97293    2.3054901   -1.0738748   -19.465438   -233.25483  -0.94533894   -19.517745    2.2914336  -0.96168706   -9.4832294   -233.23628  -0.91960273   -9.5578182    198.22442  -0.78536791   -19.103057  -0.89792302  -0.90538236   -469.92283 
     900    471.82374   -479.78189   -453.97961   -526.99404    300.24418    2.3025752   -1.0839988    -19.45548   -233.23533  -0.95156497   -19.513779    2.2833378  -0.96003947   -9.4691415   -233.21153  -0.94728325   -9.5573744    198.23532  -0.79271697   -19.115408  -0.89789667  -0.90533777   -469.92231 
    1000    471.82374     -440.381   -478.21907   -541.71432    300.36878    2.3002683   -1.0831746   -19.461188   -233.24086  -0.92068328   -19.509313    2.2861028  -0.96809744   -9.4606652   -233.22602  -0.89783277   -9.5297525    198.24274   -0.7756205   -19.123818  -0.89765611  -0.90550551   -469.92258 
    1100    471.82374   -452.04666   -466.41632   -477.94495    300.70932    2.2772633   -1.0686056   -19.488763   -233.23134  -0.92016714   -19.512817    2.2689214  -0.97229659   -9.4927868   -233.23023  -0.89658393   -9.5395744    198.22239  -0.76783124   -19.121567  -0.89770469  -0.90511611   -469.92244 
    1200    471.82374   -453.55516   -431.26285   -490.37826    300.80414    2.2869849   -1.0525293   -19.489335   -233.22036  -0.92611386    -19.51187    2.2954408   -0.9507786   -9.4949838    -233.2062  -0.91188059   -9.5169434    198.23486  -0.77476219   -19.119712  -0.89759232  -0.90536751   -469.92214 
    1300    471.82374   -430.84548   -442.11563   -484.32211    300.82285    2.2753416   -1.0450267   -19.495028   -233.22349  -0.91712661   -19.500377    2.2833589  -0.92933177   -9.5124398   -233.19474  -0.89869527   -9.5049504    198.23528  -0.77122965   -19.129402  -0.89707229  -0.90519527   -469.92165 
    1400    471.82374   -464.48732   -440.33321   -505.77493    301.02686     2.269391   -1.0266075   -19.481749    -233.2225  -0.90659855   -19.525068    2.2835986  -0.88698181   -9.4994759    -233.2055  -0.87995238   -9.5326033    198.24313  -0.79862172   -19.146947  -0.89713956  -0.90473295   -469.92097 
    1500    471.82374   -459.72669   -429.46765   -476.13218    300.93076    2.2799774   -1.0389259   -19.481766    -233.2131  -0.90657158   -19.532253    2.3024401  -0.90109688   -9.4918343   -233.19436  -0.87392249   -9.5309729    198.24715  -0.76044065   -19.126287  -0.89739435   -0.9041717   -469.92071 
    1600    471.82374   -393.07295   -404.82379   -447.97827    301.25764     2.285694   -1.0310477   -19.485154   -233.22445  -0.91373792   -19.511592    2.3111317  -0.90711941   -9.5007406   -233.21341  -0.87775663   -9.4917229    198.24307  -0.74123491    -19.14716  -0.89790409  -0.90396782   -469.92042 
    1700    471.82374   -434.13779   -425.53956    -475.5149    301.25175    2.2917052   -1.0361873   -19.484984   -233.23698  -0.91787769   -19.530577    2.3319327  -0.90822076   -9.5112972    -233.2138  -0.85897674   -9.5384337    198.23634  -0.72475193   -19.166872   -0.8984475  -0.90436764   -469.92021 
    1800    471.82374    -454.1412   -431.37125   -525.54697    301.66904    2.2817292   -1.0193102    -19.51501   -233.22649  -0.93482965   -19.523625    2.3227392   -0.8957967    -9.511905   -233.22285  -0.89045637   -9.5322487    198.23313  -0.72410265   -19.150349  -0.89872778  -0.90455021   -469.92013 
    1900    471.82374   -419.88311   -425.02919   -479.02397     301.3067     2.268185   -1.0237048   -19.485886   -233.23299  -0.93200759   -19.503508    2.2860127  -0.92656349   -9.4678336   -233.24227   -0.8626363   -9.4860689    198.23173  -0.75089942   -19.155525  -0.89882984   -0.9046502   -469.92043 
    2000    471.82374   -444.03849    -416.2877   -459.80014    301.10257    2.2896308   -1.0374157   -19.496347   -233.23661  -0.92735123   -19.506939     2.322129  -0.93442333   -9.4796411   -233.21886  -0.89580367   -9.4738931    198.22231  -0.76000844   -19.126055  -0.89880396  -0.90479212   -469.92051 
    2100    471.82374   -462.51927   -422.71637   -510.26772    301.69825    2.2798424    -1.026613   -19.487702   -233.23341  -0.91886107    -19.50187    2.3124456  -0.91127111   -9.4678806    -233.2207  -0.89547967    -9.477228    198.21918  -0.76184797   -19.117818  -0.89926852  -0.90402463   -469.92101 
    2200    471.82374   -454.60273   -437.32403   -495.79024    301.42355    2.2930626   -1.0366525   -19.491926   -233.24618  -0.92037778   -19.497354    2.3326523  -0.95515561   -9.4807891   -233.23949    -0.912038   -9.4966727     198.2228  -0.76365908   -19.108643  -0.89997814  -0.90414157   -469.92138 
    2300    471.82374   -449.34457   -466.46213   -495.32141    301.55803    2.2785812   -1.0342704   -19.486734   -233.24865  -0.92498245   -19.512898    2.3179513  -0.93881617   -9.4635794   -233.22678  -0.90102629   -9.5039393    198.20817  -0.78426377   -19.128869  -0.89983948  -0.90402124   -469.92106 
    2400    471.82374   -448.07271   -422.91935   -502.56309    301.56184    2.2859319   -1.0417155   -19.508647   -233.24668  -0.93576482   -19.490984    2.3179302  -0.94472416   -9.5072034   -233.22919  -0.91045277   -9.4688165     198.2362  -0.75089866   -19.109233  -0.89959309  -0.90451541   -469.92111 
    2500    471.82374   -425.18592   -436.51821    -509.2709    302.07582    2.2583437   -1.0477783   -19.504886    -233.2337  -0.94294435   -19.490963    2.2763409   -0.9417943   -9.5134796   -233.22608  -0.91727339   -9.4855978    198.25486  -0.75388298   -19.116539  -0.89958807  -0.90472238     -469.921 
    2600    471.82374   -419.20227   -416.15915   -466.44243    302.19324    2.2434822   -1.0605528   -19.487424   -233.21222  -0.94496611   -19.505009    2.2647664  -0.95522481   -9.4906623   -233.20396  -0.92626814   -9.5027105    198.24399  -0.74671359   -19.114505  -0.89979919  -0.90501741   -469.92069 
    2700    471.82374   -392.08538   -379.47888   -439.95328    301.98289    2.2475198   -1.0548402   -19.474442   -233.19985  -0.91523368   -19.527774    2.2683872  -0.95021367   -9.4717025    -233.1845  -0.89712694   -9.5213823    198.24997  -0.74093996    -19.09106    -0.899823  -0.90507096   -469.92114 
    2800    471.82374   -416.94022   -429.45616   -479.77606    302.12825     2.258461    -1.068284   -19.482491   -233.20275  -0.93341908   -19.541708    2.2830903  -0.96182646   -9.4553972   -233.20657  -0.90350779   -9.5368654    198.25149  -0.74096057    -19.08082  -0.89989212  -0.90596317   -469.92214 
    2900    471.82374   -404.60507   -404.55096   -474.57139    301.80799    2.2646027   -1.0506134   -19.448872   -233.22341  -0.92534268   -19.512687    2.2988422  -0.94502265    -9.421001   -233.22419  -0.88683184   -9.5173271    198.25065  -0.74447632   -19.084914  -0.89939733  -0.90595663   -469.92231 
    3000    471.82374   -388.83289   -390.47135    -447.2968    302.09876    2.2897146   -1.0580317   -19.445745   -233.23347  -0.91583698   -19.520736    2.3156316  -0.93329523   -9.4530279   -233.24152  -0.90239095   -9.5258087    198.24335  -0.74343338   -19.113746  -0.89909002  -0.90623349   -469.92232 
    3100    471.82374   -380.58169   -398.34115   -463.82219    302.01333    2.2881558   -1.0837219   -19.443479   -233.24239  -0.91512887   -19.506259     2.285923  -0.96437066    -9.419374   -233.27005  -0.88470818   -9.5087921    198.25335  -0.75055984   -19.124826  -0.89893478   -0.9063006   -469.92237 
    3200    471.82374   -397.62079   -397.37052   -444.59021    302.09211    2.2875522   -1.0852795   -19.454041   -233.22831  -0.91924411   -19.505279     2.302593  -0.96972882   -9.4228055   -233.23571  -0.90874999   -9.4802001    198.24365  -0.74134754   -19.120209  -0.89850371   -0.9063036   -469.92232 
    3300    471.82374   -412.45566   -444.80525   -497.42014    302.44283    2.3072554   -1.0746471    -19.47314   -233.21473  -0.93327819   -19.527588    2.3264534  -0.96381994   -9.4413109   -233.20398  -0.91857935   -9.4945264    198.24622  -0.74922555   -19.128275  -0.89879658  -0.90659788   -469.92254 
    3400    471.82374   -410.71996   -395.28095   -445.35949    302.31707    2.2786752   -1.0771508   -19.462913   -233.23484  -0.93044898   -19.529047    2.2974709  -0.98182414   -9.4136263   -233.20823  -0.89946171   -9.5039874    198.26205  -0.73341288   -19.141375  -0.89901834  -0.90660107   -469.92253 
    3500    471.82374   -379.91387   -374.71188   -393.87228    302.97717    2.2843476   -1.0484338    -19.42935   -233.22949  -0.92530857    -19.53265    2.2946069  -0.97859609   -9.4056867   -233.23179  -0.88807123   -9.5064101    198.25215  -0.73125532   -19.132083  -0.89907681  -0.90684118   -469.92276 
    3600    471.82374   -365.11542   -329.25039   -421.22254    302.49626    2.2775671   -1.0702227   -19.428858   -233.22469  -0.91373586   -19.510876    2.2953608   -1.0158487   -9.3784077   -233.22389  -0.89327127   -9.4883679    198.23514  -0.73935659   -19.139928  -0.89943357  -0.90714345   -469.92366 
    3700    471.82374    -380.5754    -346.4626    -432.5181    302.66073    2.2759646   -1.0654552    -19.42412   -233.22232  -0.89822692   -19.524236    2.3211549   -1.0086903   -9.3739151   -233.21403  -0.86956246   -9.4928166    198.24582  -0.73945287   -19.143517  -0.89904164  -0.90740419   -469.92398 
    3800    471.82374   -366.48647   -355.09981   -401.93919    302.92489    2.2756569    -1.067596   -19.431248   -233.21558  -0.89523949   -19.524098    2.3354515   -1.0023102   -9.3751418   -233.21119  -0.86062133   -9.4982002    198.23524  -0.74487106      -19.142  -0.89889582  -0.90774198   -469.92367 
    3900    471.82374   -314.26775   -343.19146   -406.00282    302.83145    2.2435811   -1.0762014   -19.433942    -233.2098  -0.89012571   -19.523768    2.2844149   -0.9822631   -9.3724467   -233.19532  -0.85632675   -9.5079603    198.23212  -0.75615347   -19.120223  -0.89896705  -0.90847353   -469.92386 
    4000    471.82374   -344.02462   -327.00665    -377.7319    302.57533    2.2564996   -1.0296727   -19.418146   -233.22158  -0.91030613   -19.517186      2.29581  -0.95377339   -9.3294891   -233.22271  -0.88323196   -9.4953173    198.24103  -0.75311612   -19.139195  -0.89878814  -0.90845377   -469.92353 
    4100    471.82374   -358.73152   -356.43669   -389.17759    302.73916    2.2604128   -1.0384464   -19.418693   -233.21947  -0.92898092    -19.51993    2.3045542    -0.968327    -9.365496    -233.2281  -0.91064983   -9.5065658    198.23039  -0.73047231   -19.133365   -0.8986925  -0.90845671   -469.92313 
    4200    471.82374    -377.2748   -324.53618   -433.25828    303.23549    2.2575928   -1.0186921   -19.407701   -233.22471  -0.93291032   -19.521092    2.2763623  -0.93521603   -9.3455555    -233.2285  -0.92851208   -9.5007179    198.22262  -0.73120395   -19.145132  -0.89857719  -0.90866877    -469.9226 
    4300    471.82374   -308.80594   -319.98138   -402.83076    303.12901    2.2869435   -1.0162764   -19.399912   -233.24582  -0.94953657    -19.52933     2.313099  -0.92336402   -9.3334286   -233.24703  -0.94651795   -9.5167161    198.22553  -0.71708756   -19.151796  -0.89817659   -0.9086635   -469.92322 
    4400    471.82374   -324.66618   -314.51955   -406.23088    303.17509    2.3030254   -1.0070428   -19.427911   -233.24648  -0.92090974   -19.529542    2.3380871  -0.90441005    -9.365626   -233.22082   -0.9035795   -9.5066476    198.22847  -0.73206239   -19.153952  -0.89806598  -0.90861641   -469.92379 
    4500    471.82374   -296.44896   -326.29752   -350.15583    303.35089    2.2959108   -1.0122229   -19.382868   -233.24628  -0.92457424   -19.526796    2.3176943  -0.89868581   -9.3262219   -233.21863  -0.90969366   -9.5276196    198.22051  -0.72580666   -19.175594  -0.89832358  -0.90876946   -469.92426 
    4600    471.82374   -285.63137   -278.34766   -343.54404    303.31401    2.2567654   -1.0469963   -19.380238   -233.23182  -0.93931964   -19.512999    2.2666107  -0.94883117   -9.3252708   -233.20579   -0.9258916   -9.5239183    198.24348  -0.74430099   -19.193904   -0.8984803  -0.90901975   -469.92458 
    4700    471.82374   -299.51741   -282.48563   -335.00932    303.42291    2.2998304   -1.0290564   -19.396118   -233.24012  -0.92988516   -19.531765    2.3136882  -0.95097588    -9.324853   -233.22098  -0.90051194   -9.5355046    198.24326  -0.75228942   -19.184505  -0.89812274   -0.9098703   -469.92507 
    4800    471.82374   -349.70674   -280.26946   -378.69371    303.14929    2.2841793   -1.0175633   -19.399307   -233.24609  -0.92573746   -19.517557    2.2942193   -0.9153129   -9.3195537   -233.22651  -0.87958645   -9.5127188    198.23332  -0.75220688   -19.181263  -0.89835129  -0.90976363   -469.92575 
    4900    471.82374   -253.36991   -293.51335   -350.52525    303.21609    2.2831642   -1.0485576   -19.437898   -233.22646   -0.9301114   -19.492987    2.2906258  -0.94370039   -9.3366743   -233.19041  -0.86948509   -9.4771421    198.25511  -0.78052317   -19.176864  -0.89844819  -0.90987528   -469.92585 
    5000    471.82374   -282.74413   -297.41965   -352.17616    302.72013    2.3110241   -1.0557289    -19.41685   -233.21786   -0.9198515   -19.511427    2.2939464   -0.9892967   -9.3292262   -233.17781  -0.85588698   -9.4975003    198.24127  -0.75939186   -19.177251  -0.89821218  -0.90949744     -469.926 
Loop time of 64.5728 on 512 procs for 5000 steps with 808669 atoms

Performance: 13.380 ns/day, 1.794 hours/ns, 77.432 timesteps/s
99.9% CPU use with 512 MPI tasks x no OpenMP threads

MPI task timing breakdown:
Section |  min time  |  avg time  |  max time  |%varavg| %total
---------------------------------------------------------------
Pair    | 17.783     | 40.709     | 45.147     |  75.8 | 63.04
Neigh   | 0.00032878 | 0.10959    | 0.13237    |   7.4 |  0.17
Comm    | 2.3945     | 6.6613     | 19.633     |  93.2 | 10.32
Output  | 0.027484   | 0.052839   | 0.35108    |  23.6 |  0.08
Modify  | 0.041893   | 2.7572     | 3.2817     |  34.1 |  4.27
Other   |            | 14.28      |            |       | 22.12

Nlocal:    1579.43 ave 1804 max 0 min
Histogram: 16 0 0 0 16 0 0 8 79 393
Nghost:    4585.14 ave 5133 max 498 min
Histogram: 16 0 0 14 2 0 16 0 95 369
Neighs:    110826 ave 127925 max 0 min
Histogram: 16 0 0 16 0 0 0 11 168 301

Total # of neighbors = 56743117
Ave neighs/atom = 70.1685
Neighbor list builds = 18
Dangerous builds = 0


variable  com1_x equal "c_COM1x[1]"
variable  com1_y equal "c_COM1x[2]"
variable  com1_z equal "c_COM1x[3]"
variable  com2_x equal "c_COM2x[1]"
variable  com2_y equal "c_COM2x[2]"
variable  com2_z equal "c_COM2x[3]"
variable  com3_x equal "c_COM3x[1]"
variable  com3_y equal "c_COM3x[2]"
variable  com3_z equal "c_COM3x[3]"
variable  com4_x equal "c_COM4x[1]"
variable  com4_y equal "c_COM4x[2]"
variable  com4_z equal "c_COM4x[3]"
variable  com5_x equal "c_COM5x[1]"
variable  com5_y equal "c_COM5x[2]"
variable  com5_z equal "c_COM5x[3]"
variable  comall_x equal "c_COMall[1]"
variable  comall_y equal "c_COMall[2]"
variable  comall_z equal "c_COMall[3]"


fix          2 all print 100 "${com1_x}   ${com1_y}   ${com1_z}  ${com2_x}   ${com2_y}   ${com2_z} ${com3_x}   ${com3_y}   ${com3_z} ${com4_x}   ${com4_y}   ${com4_z} ${com5_x}   ${com5_y}   ${com5_z} ${comall_x}   ${comall_y}   ${comall_z}" file COM.data screen no
#-------------------------- Wave Propagation -------------------------
unfix        3temp
run          1000000
Memory usage per processor = 2.53237 Mbytes
Step Lx Pxx Pyy Pzz Temp COM1x[1] COM1x[2] COM1x[3] COM2x[1] COM2x[2] COM2x[3] COM3x[1] COM3x[2] COM3x[3] COM4x[1] COM4x[2] COM4x[3] COM5x[1] COM5x[2] COM5x[3] COMall[1 COMall[2 COMall[3 
    5000    471.82374   -282.74413   -297.41965   -352.17616    302.72013    2.3110241   -1.0557289    -19.41685   -233.21786   -0.9198515   -19.511427    2.2939464   -0.9892967   -9.3292262   -233.17781  -0.85588698   -9.4975003    198.24127  -0.75939186   -19.177251  -0.89821218  -0.90949744     -469.926 
    5100    471.82374   -327.24708    -325.6381   -362.44982    302.67556    2.3006941   -1.0047768   -19.389658   -233.22775  -0.91277773    -19.54002    2.2852424  -0.92749207   -9.3045146   -233.18427  -0.87070421   -9.4984022    198.22575   -0.7312654   -19.184799  -0.89759015   -0.9089183   -469.92597 
    5200    471.82374    -343.6772   -344.14626   -407.63127    302.88382    2.2977489   -1.0158816   -19.374385   -233.22537  -0.89156147   -19.550066    2.2925824   -0.9700274   -9.2585892   -233.19944  -0.85417209   -9.5406064    198.23688  -0.72320539   -19.162043  -0.89696811  -0.90833916   -469.92593 
    5300    471.82374   -356.21185   -329.65419   -398.55586    302.95632    2.3068932   -1.0394372   -19.357326   -233.22794  -0.88909246   -19.558428    2.2995201   -1.0079808   -9.2440163   -233.22358  -0.86831233   -9.5596648    198.23821  -0.71326864   -19.111943  -0.89634608  -0.90776002   -469.92589 
    5400    471.82374   -357.64481   -386.00289   -475.83848     303.1018    2.2837493   -1.0454172   -19.327351   -233.21539   -0.9041319   -19.579193    2.2421797  -0.95012088   -9.2000004   -233.22059  -0.88196271   -9.5892191    198.23097  -0.72510081   -19.103726  -0.89572405  -0.90718088   -469.92585 
    5500    471.82374   -412.52573   -404.30889   -442.88558    303.10172    2.2415754   -1.0398936   -19.303572   -233.21618  -0.89370714   -19.590118    2.2451755  -0.91120283   -9.2032632   -233.21683  -0.86144326   -9.5874294    198.24748  -0.72549652    -19.12495  -0.89510201  -0.90660174   -469.92581 
    5600    471.82374    -386.9413   -404.99971   -504.52588     303.1981    2.2454884   -1.0258168   -19.287536   -233.21988  -0.86356684   -19.600603    2.2483982  -0.89998692   -9.1701279   -233.23483  -0.83642727   -9.5899886    198.23897  -0.74612574   -19.116921  -0.89447998   -0.9060226   -469.92577 
    5700    471.82374   -415.56347   -402.56465   -458.58515    303.13536    2.2246913   -1.0614314    -19.26296   -233.22673   -0.8704809   -19.605423    2.2275058  -0.97147424    -9.182165   -233.23947  -0.82509234   -9.5975463    198.21782  -0.74289694   -19.133197  -0.89385794  -0.90544346   -469.92574 
    5800    471.82374   -388.81046   -384.46811   -495.31147    302.75772    2.2387064   -1.0622548   -19.233227   -233.21021  -0.84313686   -19.621859    2.2495131  -0.98173958   -9.1389269   -233.20973  -0.80205618   -9.6277331    198.20074  -0.76354918   -19.139753  -0.89323591  -0.90486432    -469.9257 
    5900    471.82374   -400.10736   -381.72819    -465.0544     302.9423      2.24884   -1.0487387   -19.266369    -233.2204  -0.84270435   -19.603987    2.2658092  -0.97531573   -9.1628037    -233.1891  -0.82976326   -9.6009389    198.20083  -0.72867646   -19.152379  -0.89261387  -0.90428517   -469.92566 
    6000    471.82374   -349.06883   -344.12056    -431.3009    302.57619    2.2462647    -1.046635     -19.2504   -233.22392  -0.84931488   -19.583828    2.2402577  -0.99151112   -9.1927694   -233.20318  -0.83388703   -9.5676602    198.20816  -0.72051626   -19.163098  -0.89199184  -0.90370603   -469.92562 
    6100    471.82374   -381.80727   -355.48842   -495.87886    303.30743    2.2200038   -1.0737283   -19.253737   -233.25211  -0.83423961   -19.557398     2.215366   -1.0032475   -9.2052661   -233.22451  -0.82926977   -9.5654629    198.24017  -0.73563856   -19.173407  -0.89136981  -0.90312689   -469.92558 
    6200    471.82374    -348.4116   -345.84101   -398.68095    302.82341    2.1975528    -1.052187   -19.226792   -233.24603  -0.84025182   -19.566056    2.2071541  -0.99813531   -9.1492437   -233.22119  -0.80422594   -9.5410061    198.23594  -0.73991509   -19.189202  -0.89074777  -0.90254775   -469.92554 
    6300    471.82374   -338.38906   -303.51735   -382.93867    302.93545    2.2135913    -1.040907   -19.211122    -233.2442  -0.83825629   -19.561878    2.2170742  -0.99482084   -9.1255811   -233.22478  -0.79164616   -9.5607173    198.23586  -0.74967107   -19.229192  -0.89012574  -0.90196861   -469.92551 
    6400    471.82374   -328.33561   -297.33731   -383.92825    303.47643    2.2027556   -1.0602045   -19.203444   -233.24462  -0.86144828   -19.607563    2.2106572  -0.97005751   -9.1379817    -233.2268  -0.82678254   -9.6168671    198.23524  -0.74670608   -19.240734   -0.8895037  -0.90138947   -469.92547 
    6500    471.82374   -292.77742   -290.36423   -345.76408    303.45817    2.2215379   -1.0497812   -19.195294   -233.25954  -0.86220349   -19.635992    2.2431709  -0.95092361   -9.1075179   -233.25116  -0.80236921   -9.6268745    198.25298  -0.74132288   -19.241354  -0.88888167  -0.90081033   -469.92543 
    6600    471.82374   -275.57991   -257.48698   -334.33265     302.9122    2.2346837  -0.99924708   -19.203966   -233.25256  -0.86652728   -19.630984    2.2380576  -0.89322323   -9.1541892   -233.26758  -0.81591382    -9.625508    198.24617  -0.75114171   -19.235562  -0.88825963  -0.90023119   -469.92539 
    6700    471.82374   -303.74535   -247.62631   -291.19018    302.84359    2.2482835  -0.98981874   -19.233617   -233.25353  -0.86078016   -19.649567    2.2688241   -0.8808574   -9.1730286   -233.24732  -0.82819848   -9.6309796    198.23935  -0.77124981   -19.217594   -0.8876376  -0.89965205   -469.92535 
    6800    471.82374    -305.4437    -285.9133   -331.42948    303.35555    2.2365204  -0.95784884   -19.241727   -233.25166  -0.86254667   -19.640395    2.2786841  -0.86160473   -9.1905224   -233.25737  -0.83705656   -9.6495349    198.25805  -0.79155877   -19.223623  -0.88701556  -0.89907291   -469.92531 
    6900    471.82374   -301.99629   -247.89804   -319.24445    303.22131    2.2376702  -0.94135254   -19.244604   -233.23987  -0.84974125   -19.612766    2.2630355  -0.86097545   -9.1878218   -233.23917  -0.82350337   -9.6296639    198.24605  -0.77703721   -19.223212  -0.88639353  -0.89849377   -469.92528 
    7000    471.82374   -242.43919   -246.67005   -273.75588    302.82099     2.260189   -0.9525372   -19.252016   -233.24084  -0.84772311   -19.616445    2.2724093  -0.87736843   -9.1909584   -233.23764  -0.79982374   -9.6239254    198.25193  -0.75449213   -19.197845   -0.8857715  -0.89791463   -469.92524 
    7100    471.82374   -292.17712   -279.95584   -340.07136    303.65194    2.2658804  -0.94337893    -19.25426   -233.25374  -0.83749507   -19.604184    2.2941422  -0.88848877   -9.2270584   -233.23098  -0.81625775   -9.5968801    198.26813  -0.75336866   -19.164138  -0.88514946  -0.89733549    -469.9252 
    7200    471.82374   -289.28146   -270.04292     -346.922    303.10443    2.2496749  -0.93450528   -19.271811   -233.27715  -0.83548258    -19.58387    2.2754462  -0.88266931     -9.21003   -233.25713  -0.84307487   -9.5464142    198.25696  -0.73676237   -19.180117  -0.88452743  -0.89675635   -469.92516 
    7300    471.82374   -274.93386   -267.41199   -306.54154    302.94985    2.2655143  -0.93859975   -19.248295    -233.2701   -0.8288248    -19.57776    2.2840571  -0.86836415   -9.1864428   -233.25499  -0.81447658   -9.5365091    198.23062  -0.74240415   -19.186875  -0.88390539  -0.89617721   -469.92512 
    7400    471.82374   -309.46855   -271.64626   -352.08745     303.4219    2.2701182    -0.934267   -19.216486   -233.24459  -0.82607928   -19.563661    2.2872326  -0.82070244   -9.1511659   -233.21961  -0.79951094   -9.5393185    198.22537  -0.73662632     -19.1996  -0.88328336  -0.89559807   -469.92508 
    7500    471.82374   -255.02648   -260.09804   -291.07991    302.85265    2.2905557  -0.92699269   -19.201582   -233.25803  -0.83930224   -19.552891    2.2832043  -0.83158388   -9.1733344   -233.22804  -0.81748204    -9.521155    198.22198  -0.72338248   -19.199786  -0.88266132  -0.89501893   -469.92505 
    7600    471.82374   -260.03939   -224.29423   -285.29972    302.90323    2.2897741  -0.90299366   -19.239722    -233.2605  -0.83244334    -19.53527     2.274433  -0.80908073   -9.2267502   -233.24466  -0.77373474   -9.5081906    198.21447  -0.70637308   -19.205335  -0.88203929  -0.89443978   -469.92501 
    7700    471.82374   -251.60186   -216.65647   -248.41902    303.40809    2.2765422  -0.87979893   -19.278538    -233.2608  -0.82862222   -19.548717    2.2574863   -0.7617005   -9.2591408   -233.22947  -0.78639934   -9.5076241    198.20197  -0.70829658   -19.208488  -0.88141726  -0.89386064   -469.92497 
    7800    471.82374   -234.49849    -215.0765    -250.8535    303.34097    2.2934885  -0.87509249    -19.31791   -233.25047  -0.82200429   -19.583425     2.270989  -0.75984589   -9.2814169   -233.21326  -0.78276186   -9.5652897    198.19778  -0.68736081   -19.226198  -0.88079522   -0.8932815   -469.92493 
    7900    471.82374   -236.21846   -188.30999   -220.27427    303.20238    2.2877337  -0.89796734   -19.309741    -233.2423   -0.8364556   -19.579593    2.2624541  -0.77997672   -9.2685656   -233.21661  -0.79720391   -9.5681384    198.20458  -0.68434202   -19.241623  -0.88017319  -0.89270236   -469.92489 
    8000    471.82374   -212.96774   -169.60949    -197.0514    303.26263    2.2915244  -0.88095375   -19.310474   -233.23127  -0.83775891   -19.603204    2.2768653  -0.77398099   -9.2519432   -233.22196  -0.81708286   -9.5952169    198.19416  -0.66808217   -19.251084  -0.87955115  -0.89212322   -469.92485 
    8100    471.82374   -206.09874   -146.77833   -167.57974    303.35359    2.2951984  -0.86627037   -19.325158   -233.23783  -0.83999669   -19.619183    2.2705859  -0.74950824   -9.2870934   -233.25169  -0.80983737   -9.6246284    198.19788  -0.65630833   -19.259982  -0.87892912  -0.89154408   -469.92482 
    8200    471.82374   -172.64481   -140.71388   -176.70906    303.26138    2.3004611  -0.88195504   -19.301942    -233.2879  -0.82483308   -19.587147     2.289997  -0.77691626   -9.2702037   -233.30386  -0.79251808   -9.5972613    198.19475  -0.65653504   -19.271465  -0.87830708  -0.89096494   -469.92478 
    8300    471.82374   -187.64938   -155.57277   -172.88692    303.32033    2.3003148  -0.87455692   -19.341525   -233.28584  -0.80289548   -19.568494    2.3289284  -0.79181539   -9.2975457   -233.30443  -0.75541888   -9.5793951    198.19938  -0.63938565   -19.287081  -0.87768505   -0.8903858   -469.92474 
    8400    471.82374   -187.46822   -130.86426   -158.96895    303.23164    2.3301836  -0.87514653   -19.332025   -233.28768  -0.80238722    -19.58331    2.3584823  -0.81132699   -9.2855103   -233.31004  -0.74633092   -9.5959452     198.1909  -0.60769709   -19.264255  -0.87706302  -0.88980666    -469.9247 
    8500    471.82374   -151.99806   -142.54679   -126.26067    303.23445    2.3438821  -0.85237192   -19.331913   -233.28258  -0.79622906   -19.619847    2.3760701  -0.77519386   -9.2778465   -233.31437  -0.75889801   -9.6461701    198.20745  -0.58149114    -19.28363  -0.87644098  -0.88922752   -469.92466 
    8600    471.82374   -122.67816   -99.606582   -108.53862    303.11945    2.3433468  -0.86270707   -19.327732   -233.27687  -0.74820974   -19.647303    2.3734975  -0.80318044   -9.2759613   -233.31156  -0.72212957   -9.6444569    198.21556    -0.589398   -19.311175  -0.87581895  -0.88864838   -469.92462 
    8700    471.82374   -101.57256   -96.448267   -54.099768    303.55283    2.3571686  -0.87566963   -19.375947   -233.26585  -0.76166839   -19.666883    2.3955752  -0.81544609   -9.3466388   -233.28616  -0.73459171   -9.6689011    198.22331  -0.61808763   -19.315039  -0.87519691  -0.88806924   -469.92459 
    8800    471.82374   -79.188757   -70.063983   -6.1498432    302.89054    2.3726039  -0.89541844   -19.386643   -233.26804  -0.77340103   -19.655289    2.3884616  -0.84271264   -9.3668154   -233.28862  -0.77067845   -9.6321999     198.2339  -0.62596729   -19.337208  -0.87457488   -0.8874901   -469.92455 
    8900    471.82374   -103.55474   -122.78267   -44.677994    303.61662    2.3736873  -0.91305554   -19.367468   -233.26716  -0.79668699   -19.669545    2.3697165  -0.84199405   -9.3564732   -233.27629  -0.77854384   -9.6218199    198.21252  -0.58204999   -19.345743  -0.87395284  -0.88691096   -469.92451 
    9000    471.82374   -74.614753   -75.450293   -33.572486    303.07406    2.3740269  -0.91476398   -19.362353   -233.25044  -0.76295866    -19.70847    2.3512263  -0.84376262   -9.3500415   -233.23943  -0.73233924   -9.6913594    198.22717  -0.60232328   -19.340644  -0.87333081  -0.88633182   -469.92447 
    9100    471.82374   -69.693822   -55.088775   -22.951719    303.04672    2.3709125  -0.89242389   -19.369509    -233.2475  -0.72981688   -19.737512    2.3451348  -0.80598238   -9.3565325   -233.23309  -0.67549276   -9.7344572    198.23356   -0.6182681   -19.336108  -0.87270878  -0.88575268   -469.92443 
    9200    471.82374   -60.301625   -53.759487   -39.610638    303.26785    2.3988203   -0.8866995   -19.381879   -233.23019  -0.71733239   -19.735071    2.3688275  -0.76393039   -9.3423074   -233.21371  -0.65433458   -9.7195944    198.23758  -0.62457223   -19.334121  -0.87208674  -0.88517354   -469.92439 
    9300    471.82374   -62.610558   -43.397402   -15.683871    303.53269    2.3860166  -0.85691955   -19.358833   -233.21783  -0.70443552   -19.736892    2.3352757  -0.74379282    -9.308833    -233.1864  -0.64848313    -9.728104    198.24247  -0.60173125   -19.369871  -0.87146471  -0.88459439   -469.92436 
    9400    471.82374   -23.668511   -24.099224    4.1861355    303.16974     2.373884  -0.83131924   -19.377018   -233.20825  -0.70534279    -19.72645    2.3219162  -0.75112944   -9.3239585   -233.16012  -0.63981793   -9.7100374    198.27013  -0.61219935   -19.388869  -0.87084267  -0.88401525   -469.92432 
    9500    471.82374    -60.61846   -24.347826    44.049051    303.34247    2.3673608  -0.82047898   -19.372834   -233.18667  -0.71244736   -19.746664    2.3397136  -0.73064641   -9.3256656   -233.13389  -0.68061432     -9.72892    198.25898  -0.60651343    -19.42506  -0.87022064  -0.88343611   -469.92428 
    9600    471.82374   -45.992376    8.3631869    38.879745    303.25685    2.3446317  -0.81861378   -19.377566   -233.18521  -0.71112014   -19.781359    2.3382246  -0.72935805   -9.3446101    -233.1344  -0.66603857   -9.7466208    198.27091  -0.63072464    -19.43575   -0.8695986  -0.88285697   -469.92424 
    9700    471.82374   0.87989927   -1.4385939    57.985596       303.45     2.364874  -0.79142588   -19.409019   -233.17451   -0.7207889   -19.796021    2.3606611  -0.71425866   -9.3980787   -233.13642  -0.68369411   -9.7783518    198.27838    -0.654221   -19.433519  -0.86897657  -0.88227783    -469.9242 
    9800    471.82374   -1.7078944    44.566347     87.09059    302.95896    2.3684639  -0.78713366   -19.402978   -233.18205  -0.73450477    -19.79955    2.3756621  -0.68044994   -9.3947016    -233.1669  -0.70125053   -9.8064273    198.29716    -0.642544   -19.437055  -0.86835453  -0.88169869   -469.92416 
    9900    471.82374   -4.1815307    20.542487    111.29745     303.2679    2.4000806  -0.78992752   -19.376632   -233.17397  -0.75131254   -19.811845    2.4094169  -0.70479775   -9.3707528   -233.19119  -0.72080577   -9.8328444    198.27477  -0.62047171    -19.44292   -0.8677325  -0.88111955   -469.92413 
   10000    471.82374    -2.482048    3.4920868    59.678055    303.38901    2.4192902  -0.80080194   -19.378496   -233.17993  -0.75328917   -19.806439    2.4380397   -0.6906908   -9.3966091   -233.19583   -0.7640863   -9.8105846    198.28727  -0.60871114   -19.448443  -0.86711047  -0.88054041   -469.92409 
   10100    471.82374   -10.743894    10.887706    102.89002    303.33696    2.4218334  -0.78279663   -19.411338   -233.18557  -0.78178365   -19.823194    2.4645194  -0.68169701   -9.4137307   -233.20898  -0.75695948   -9.8133418    198.29147  -0.59797306   -19.451503  -0.86648843  -0.87996127   -469.92405 
   10200    471.82374    26.607591    5.8123553    90.262268    303.01997    2.4461651  -0.78139282   -19.405916   -233.20745  -0.80690283   -19.848965    2.4926598  -0.68889794   -9.3963541   -233.22226  -0.77405123   -9.8319093    198.30053  -0.60850346   -19.455036   -0.8658664  -0.87938213   -469.92401 
   10300    471.82374   -12.759661    1.9202757    64.148186    303.55023    2.4478632   -0.8017193   -19.423782   -233.20874  -0.78791342   -19.867822    2.5035868  -0.72220747   -9.3846739   -233.22656  -0.73276247   -9.8477368    198.29976  -0.61576573   -19.431955  -0.86524436  -0.87880299   -469.92397 
   10400    471.82374    24.175149    2.1814449    84.034607    303.39315     2.428747  -0.80042361   -19.411383   -233.19169  -0.78871212   -19.901347     2.468398  -0.73159555   -9.3758298   -233.16423  -0.73082287   -9.8871537    198.32771  -0.62149195   -19.419884  -0.86462233  -0.87822385   -469.92393 
   10500    471.82374     18.95075     53.89914    86.533837    303.04563    2.4448742  -0.79247945     -19.4111   -233.19752  -0.78913744   -19.908267     2.484157  -0.71503842   -9.3692054   -233.16591  -0.72540516    -9.908756     198.3176  -0.61013031   -19.418788  -0.86400029  -0.87764471    -469.9239 
   10600    471.82374    10.701281    17.173942    93.396516    303.15685    2.4406102  -0.77936192    -19.41486   -233.19245  -0.77834054   -19.914793    2.4777148  -0.70217242   -9.3529003   -233.17008   -0.7384333   -9.9353294    198.32389  -0.64472014   -19.412503  -0.86337826  -0.87706557   -469.92386 
   10700    471.82374  -0.18221728   -2.7474815     64.98016    303.26007     2.434994  -0.79039374   -19.421427   -233.19074  -0.75681188   -19.950159    2.4765796  -0.70064469   -9.3481029   -233.17747  -0.73890791   -9.9832724    198.34529  -0.63770132   -19.432579  -0.86275623  -0.87648643   -469.92382 
   10800    471.82374   -5.8522836     13.13647    83.191492    303.45669    2.4465426  -0.77692624   -19.442911   -233.16615  -0.74195677   -19.933761    2.4919245  -0.67972363   -9.3780723   -233.15888  -0.71266499    -9.922014    198.36388  -0.64523855   -19.411901  -0.86213419  -0.87590729   -469.92378 
   10900    471.82374    30.226474    42.475741    139.69865    303.40875    2.4444862  -0.77718724    -19.43108   -233.14745  -0.75184765   -19.920917    2.4900135  -0.66683362   -9.3617115   -233.13008  -0.71613233   -9.8792302    198.35848  -0.65991125   -19.439665  -0.86151216  -0.87532815   -469.92374 
   11000    471.82374    23.926951    17.324644    133.49083    303.50783    2.4480765  -0.77810358   -19.429583   -233.15236  -0.74731718   -19.918771    2.4711193  -0.66770698   -9.4035749   -233.12034  -0.72703657   -9.8824242     198.3872  -0.64566034   -19.442963  -0.86089012    -0.874749    -469.9237 
   11100    471.82374    18.562588    33.046379      94.1221     303.5725    2.4213498   -0.7832825   -19.439155   -233.16305  -0.77565536   -19.905534    2.4355454  -0.68927548   -9.4280464   -233.13859  -0.76371062   -9.8922324    198.40037   -0.6319396     -19.4286  -0.86026809  -0.87416986   -469.92367 
   11200    471.82374    47.295506     26.72656    126.44462    303.56599     2.415467  -0.78668637   -19.437268   -233.16244  -0.78270875   -19.892072    2.4311569  -0.69791434   -9.4233043   -233.13972  -0.76343338   -9.8589086    198.43002  -0.61899068   -19.447791  -0.85964605  -0.87359072   -469.92363 
   11300    471.82374     61.19526    71.615178    145.05577    303.47593    2.3975021  -0.80684179   -19.451244   -233.15508  -0.80357608    -19.87168    2.4078041    -0.715967   -9.4249484   -233.14701  -0.78278407   -9.8348484    198.41735  -0.62613774   -19.439744  -0.85902402  -0.87301158   -469.92359 
   11400    471.82374    60.933943    49.367805    145.99279    303.60759    2.3699873  -0.82941041   -19.466166   -233.16292  -0.78918066   -19.879002    2.3808321   -0.7546308   -9.4400642   -233.15945  -0.76185453    -9.860626    198.42173  -0.64397435   -19.460026  -0.85840199  -0.87243244   -469.92355 
   11500    471.82374    68.019988    62.358571    132.59993    303.25997     2.387542  -0.82284146    -19.44729   -233.14292  -0.78098779    -19.90334    2.3842971  -0.75464965   -9.4275469   -233.15484  -0.72407861   -9.8988745    198.43341  -0.61917017   -19.489924  -0.85777995   -0.8718533   -469.92351 
   11600    471.82374    64.043185    78.413696    122.58057    303.22697    2.3745045  -0.84710829   -19.445537    -233.1319  -0.75550946   -19.914161     2.396979   -0.7667064   -9.4365519   -233.14141  -0.72157789   -9.8991594    198.41763  -0.63103164   -19.469037  -0.85715792  -0.87127416   -469.92347 
   11700    471.82374    58.715909    89.222979    127.48968    303.47823    2.3612587  -0.84109234   -19.436986   -233.12375  -0.74820626   -19.890323    2.3755578  -0.77656271   -9.4341619   -233.13102  -0.71859234   -9.8794773    198.43164  -0.62954249   -19.468699  -0.85653588  -0.87069502   -469.92344 
   11800    471.82374    71.182648     90.60135     165.2193     303.1864    2.3318341  -0.81957407   -19.459837   -233.12499  -0.73511241   -19.852846    2.3551884  -0.73835108   -9.4656776    -233.1143  -0.70388052   -9.8296961    198.40914  -0.60459076   -19.458263  -0.85591385  -0.87011588    -469.9234 
   11900    471.82374    85.273435    118.12728    181.05441    303.35818    2.3431997  -0.83368509   -19.495318   -233.08867  -0.72154454   -19.852498     2.371001  -0.73022491   -9.4822739   -233.08548  -0.70321056   -9.8477805     198.4078  -0.63639193   -19.474821  -0.85529181  -0.86953674   -469.92336 
   12000    471.82374    118.29353    135.91932    219.99866    303.11903     2.340487  -0.83957739   -19.487552   -233.06237  -0.73120443   -19.871554    2.3388233  -0.72250794   -9.4760346   -233.04655  -0.70284631   -9.8549446     198.4155  -0.63482045   -19.474357  -0.85466978   -0.8689576   -469.92332 
   12100    471.82374    170.97146    148.71852    251.74665    303.15304    2.3528001  -0.83309537    -19.52078   -233.05687  -0.74965951   -19.866198    2.3687819   -0.7149432   -9.4908616   -233.05811  -0.69906681   -9.8708646    198.42414  -0.62948817     -19.4681  -0.85404775  -0.86837846   -469.92328 
   12200    471.82374    150.21673    158.21568    244.11174    303.38948    2.3699657  -0.87410657   -19.542493   -233.04038  -0.75376858   -19.856116    2.3756839  -0.79377963   -9.5204413   -233.04402  -0.69413873   -9.8458997    198.43124  -0.64195719   -19.446903  -0.85342571  -0.86779932   -469.92324 
   12300    471.82374    168.37242    158.60022    254.19968    303.73683    2.3591623  -0.89411095   -19.556847   -233.02696  -0.75189852   -19.839297    2.3783181  -0.79705841   -9.5496839   -233.02465  -0.68835635   -9.8132063    198.42548  -0.63548856     -19.4505  -0.85280368  -0.86722018   -469.92321 
   12400    471.82374    202.01142    205.15781    333.35433    302.97596    2.3471698  -0.89332484   -19.580509    -233.0353   -0.7485972   -19.818792    2.3476581  -0.80519115   -9.5672641   -233.03893  -0.71607521   -9.8062934    198.42994  -0.62665446   -19.460593  -0.85218164  -0.86664104   -469.92317 
   12500    471.82374    209.79593    191.95957    314.12268    303.32109     2.345071  -0.90540685   -19.583066   -233.03888  -0.75050529   -19.778252    2.3557973  -0.82635113   -9.5644741   -233.03312   -0.7145702   -9.7805314     198.4479  -0.62380014   -19.446444  -0.85155961   -0.8660619   -469.92313 
   12600    471.82374    191.50866    185.58559    326.82528     303.3353    2.3306904  -0.91300065   -19.577303   -233.05316  -0.75098683   -19.767288    2.3474042  -0.83921362    -9.573262   -233.06271  -0.72794698   -9.7640455    198.45979  -0.62637157   -19.441332  -0.85093757  -0.86548276   -469.92309 
   12700    471.82374    198.37169    238.75715    305.18339    303.44731    2.3425078  -0.87807156   -19.576574   -233.06195  -0.73189478   -19.738864    2.3345887  -0.79791628    -9.602017   -233.06744  -0.71428596   -9.7052852    198.45827  -0.64741743   -19.443468  -0.85031554  -0.86490361   -469.92305 
   12800    471.82374    188.59006    223.65851    327.10927    303.49021    2.3638674  -0.90131121   -19.611018   -233.04522  -0.74753603   -19.735525    2.3409317   -0.8549865   -9.6423594   -233.06276  -0.74007323   -9.6936915    198.45268  -0.65010022    -19.47575   -0.8496935  -0.86432447   -469.92301 
   12900    471.82374    223.83089    193.37547    303.57466    303.30863    2.3812661  -0.91849191   -19.630919   -233.03198  -0.75556635   -19.729589     2.355916  -0.84232477   -9.6516241   -233.03413  -0.72535736   -9.7183887    198.45658  -0.62906795   -19.462971  -0.84907147  -0.86374533   -469.92298 
   13000    471.82374    210.19113    194.92382    310.90234    303.40807    2.3977185  -0.93089355   -19.632513   -233.03005  -0.78402443   -19.704339    2.3759784  -0.82447072   -9.6313657   -232.99838  -0.73431353     -9.67469    198.44277  -0.64650802   -19.445315  -0.84844944  -0.86316619   -469.92294 
   13100    471.82374    216.98127    226.87485    354.57554    303.37047    2.3842502  -0.94176516   -19.615855   -233.03279  -0.79537266   -19.693124    2.3832694  -0.83104414   -9.6178513   -233.00014  -0.74725263   -9.6728171    198.43676  -0.65107765   -19.440429   -0.8478274  -0.86258705    -469.9229 
   13200    471.82374    208.22456    222.13914    380.83709    303.21544    2.3876266  -0.91527802   -19.617273    -233.0175  -0.78668182   -19.698427    2.4170147  -0.81149509   -9.5959437   -232.98789  -0.74753733   -9.6698302    198.44327  -0.63579529   -19.399868  -0.84720537  -0.86200791   -469.92286 
   13300    471.82374    243.68664     250.4616    369.96981    303.12721    2.3843646  -0.87573571   -19.625757   -233.01767  -0.78631269   -19.688857    2.4249062   -0.7935439   -9.5958485   -232.99543  -0.78108079   -9.6666792    198.45747  -0.62772613    -19.39072  -0.84658333  -0.86142877   -469.92282 
   13400    471.82374    216.97189    235.94798     367.9771    303.17295     2.388065  -0.86773238   -19.583411   -233.01827  -0.79106459   -19.692052    2.4249915  -0.77754151   -9.5679687   -233.01498  -0.76927696   -9.6846123    198.45531   -0.6187105   -19.373367   -0.8459613  -0.86084963   -469.92278 
   13500    471.82374    198.60339    234.85192    358.48353    303.30783    2.4090393   -0.8448703   -19.574422   -233.00259  -0.77851987   -19.719126    2.4526217  -0.79410905    -9.547312   -232.98259  -0.75407535   -9.7184165    198.45089  -0.64011048   -19.350596  -0.84533926  -0.86027049   -469.92275 
   13600    471.82374    209.35019    261.12545    324.69871    303.26784     2.417583  -0.85352243   -19.602677   -233.01686  -0.77923504   -19.705106    2.4670142  -0.77568076   -9.5633745   -232.99891  -0.74099448   -9.7121498    198.42623  -0.64052142   -19.343947  -0.84471723  -0.85969135   -469.92271 
   13700    471.82374    223.80739    219.18528    375.99499    303.41881    2.4202203  -0.90245978   -19.575162   -233.03178  -0.75800174   -19.719397    2.4507396  -0.82107172   -9.5659904   -233.02304  -0.72643146    -9.736576    198.45371  -0.65371819   -19.341319   -0.8440952  -0.85911221   -469.92267 
   13800    471.82374    244.75739    239.30991    361.72773    303.29832    2.4438008  -0.92073811   -19.597718    -233.0462  -0.75806644   -19.759873    2.4955613  -0.84454329   -9.6085317   -233.05351  -0.73049871   -9.7641067    198.43874  -0.67247952   -19.357505  -0.84347316  -0.85853307   -469.92263 
   13900    471.82374     196.1622    220.32487     375.4602     303.7254    2.4454478  -0.93523366   -19.619799    -233.0437  -0.73337512   -19.753698    2.4565477  -0.83866859   -9.6199324   -233.06019  -0.72075416   -9.7575446      198.452  -0.65424323   -19.375598  -0.84285113  -0.85795393   -469.92259 
   14000    471.82374    231.67044    225.16513    398.48258    303.69385    2.4559453  -0.96341424   -19.620555   -233.04311   -0.7169121   -19.729654    2.4500526  -0.87566718   -9.6108499   -233.04638  -0.71295394   -9.7599941    198.43543  -0.65029572    -19.35482  -0.84222909  -0.85737479   -469.92255 
   14100    471.82374    248.98857    245.58682     442.8505    303.41061    2.4604003  -0.95134957   -19.638218   -233.04243  -0.71937732   -19.752622    2.4507893  -0.86976734    -9.618864   -233.03144  -0.67742471   -9.7495268    198.41859  -0.64626686   -19.377831  -0.84160706  -0.85679565   -469.92252 
   14200    471.82374    293.17407    279.81873    454.15451    303.05011     2.467429   -0.9622612   -19.661125   -233.05205  -0.72905888   -19.741574    2.4643756  -0.87591426   -9.6515973   -233.04846   -0.6859182   -9.7002015    198.41589  -0.64844252   -19.392169  -0.84098502  -0.85621651   -469.92248 
   14300    471.82374    254.39576    289.90766    419.90355    303.34671    2.4703067  -0.93179048   -19.670886   -233.05603  -0.70739082   -19.733507    2.4638827  -0.85558239   -9.6671784   -233.05018  -0.67005442   -9.7006668    198.39971  -0.63147839   -19.432219  -0.84036299  -0.85563737   -469.92244 
   14400    471.82374    225.62008    259.15024    433.57318    303.30027    2.4515911   -0.9070995   -19.656368    -233.0673  -0.71190321   -19.733559    2.4209279  -0.82572395   -9.6538867   -233.04292  -0.67613756   -9.7206411    198.39571  -0.59062873   -19.419449  -0.83974096  -0.85505822    -469.9224 
   14500    471.82374    235.09068    236.94315    389.30714    303.68326    2.4622259  -0.90444728   -19.647854   -233.06892   -0.7187324    -19.71679    2.4474508  -0.84458391   -9.6182408   -233.06201  -0.66624418   -9.6987415    198.40845  -0.59599042   -19.427126  -0.83911892  -0.85447908   -469.92236 
   14600    471.82374    238.84239    288.74798    415.75331    303.36968    2.4651349   -0.8889641   -19.658746   -233.05461  -0.72177763   -19.755525    2.4543799  -0.80720164   -9.6152306   -233.03375  -0.67775592   -9.7431011    198.41168  -0.59937368   -19.426453  -0.83849689  -0.85389994   -469.92233 
   14700    471.82374    260.45213    292.94688    438.20637    303.47647    2.4815698  -0.87155895   -19.635335   -233.04159  -0.71973253   -19.749695    2.4704284  -0.79895415   -9.5968396   -233.04383   -0.6906017   -9.7507604    198.40263  -0.60424128   -19.398164  -0.83787485   -0.8533208   -469.92229 
   14800    471.82374    325.96226    308.85521    499.02338    303.18254    2.5020386  -0.85951399   -19.612957   -233.02758  -0.71066353   -19.721861    2.4951981   -0.7834925   -9.5787104    -233.0332  -0.69224343   -9.7316491    198.39294  -0.62088474   -19.396071  -0.83725282  -0.85274166   -469.92225 
   14900    471.82374    291.20256    313.44136    471.23495    303.30373    2.5232891  -0.84119283   -19.632108   -233.02891  -0.69898442   -19.729263    2.5050938  -0.73218985    -9.596977   -233.04752  -0.68328458   -9.7647832    198.36598  -0.60960822   -19.388497  -0.83663078  -0.85216252   -469.92221 
   15000    471.82374     271.9725    320.78706    447.93454    303.47086    2.5093819  -0.84737194    -19.65727   -233.04805  -0.72509666   -19.766727    2.5141717  -0.71362874   -9.6346242    -233.0833  -0.67231448   -9.7651319    198.36699  -0.60472694   -19.377939  -0.83600875  -0.85158338   -469.92217 
   15100    471.82374    274.11586    256.75178    445.73093    303.59269     2.527504  -0.84144357   -19.664676   -233.06622  -0.68612995   -19.784484    2.5098499  -0.71647374   -9.6417217   -233.08179  -0.63626607   -9.7660339    198.37264  -0.61353568   -19.372764  -0.83538672  -0.85100424   -469.92213 
   15200    471.82374    279.70436     314.3352    499.93884    303.13826    2.5288378  -0.84229734   -19.659078   -233.07005  -0.71107863   -19.782888    2.5160569  -0.70797625   -9.6548033   -233.09096  -0.66882516   -9.7819487    198.38753  -0.61530539   -19.361713  -0.83476468   -0.8504251    -469.9221 
   15300    471.82374    275.77742    308.26787    450.76231    303.58849      2.51878  -0.84443331   -19.662134   -233.07721  -0.74304681   -19.772533    2.5068554  -0.71108612   -9.6517309   -233.07915  -0.69379414   -9.7668507    198.39164  -0.61693052   -19.359026  -0.83414265  -0.84984596   -469.92206 
   15400    471.82374    288.21401    276.22262    442.15664    303.29068    2.5148337  -0.87037621   -19.676336   -233.09625  -0.73768544   -19.757254    2.5346828  -0.76708106   -9.6756976   -233.07002  -0.71820781   -9.7503573    198.38863  -0.61770394   -19.369075  -0.83352061  -0.84926682   -469.92202 
   15500    471.82374    251.42328    281.06661    427.49343    303.31741    2.5439892   -0.8620844   -19.694925   -233.08307  -0.76674046     -19.7514    2.5556681  -0.78528572    -9.666602   -233.05696  -0.73533309   -9.7506612    198.38679   -0.6022112   -19.325904  -0.83289858  -0.84868768   -469.92198 
   15600    471.82374    262.79722    248.37119    390.08252    303.34483    2.5379366  -0.84823412   -19.704687   -233.10224  -0.74967928   -19.756311    2.5923112  -0.79062908   -9.6747494   -233.09069  -0.72904001   -9.7415014    198.38013  -0.60153561   -19.307705  -0.83227654  -0.84810854   -469.92194 
   15700    471.82374    243.46088    252.66351     348.3298    303.53796    2.5265778  -0.88630201   -19.713218   -233.09761  -0.75466128   -19.786697      2.57752  -0.81115887   -9.6603314   -233.08025  -0.74068679   -9.7357777    198.36764  -0.63357045   -19.298502  -0.83165451   -0.8475294    -469.9219 
   15800    471.82374    213.06459    215.56491    360.86629    303.48203    2.5089742  -0.88011774   -19.732856   -233.11509  -0.76858482   -19.784053    2.5510887  -0.81249848   -9.6733473   -233.09069  -0.74889014   -9.7478506    198.37178  -0.65896938    -19.33216  -0.83103247  -0.84695026   -469.92187 
   15900    471.82374    199.63432    248.52942    380.08462    303.20704    2.5272041  -0.88205198   -19.749954   -233.13285  -0.75553083   -19.755767    2.5639028  -0.81695397   -9.7384274   -233.11907  -0.72454184   -9.7240237     198.4127  -0.65440988   -19.328748  -0.83041044  -0.84637112   -469.92183 
   16000    471.82374     245.3849    244.75056     376.1578    303.19493    2.5222099  -0.88727956   -19.744588   -233.12783  -0.76214409   -19.739486    2.5143597  -0.82646484   -9.7540787   -233.10616  -0.74200679   -9.7258865    198.42379  -0.67073833   -19.325127  -0.82978841  -0.84579197   -469.92179 
   16100    471.82374    217.49661    264.45067    382.46192    303.34994    2.5212462  -0.89559958   -19.727934   -233.12605  -0.75707527   -19.738968    2.5122498  -0.84292963   -9.7288429   -233.08091  -0.71169253   -9.7504126      198.408  -0.67923764   -19.309327  -0.82916637  -0.84521283   -469.92175 
   16200    471.82374    254.88695    262.65833    411.50431    303.50636    2.5021504  -0.88240386   -19.762075   -233.11712  -0.76948782   -19.739039     2.493225  -0.82033858   -9.7550818   -233.08931  -0.72429479   -9.7463754    198.41745  -0.66572409   -19.276952  -0.82854434  -0.84463369   -469.92171 
   16300    471.82374    266.31498     286.8339    419.60597    303.44342    2.4725271  -0.90662699   -19.778815   -233.12592  -0.80176001   -19.740677    2.4363255  -0.81830128    -9.771979    -233.1128  -0.73840742   -9.7584806    198.41814  -0.67180021   -19.270088   -0.8279223  -0.84405455   -469.92167 
   16400    471.82374    290.96901    311.26318    446.18812    303.66386    2.4807707  -0.90665036   -19.786131   -233.11608  -0.79362837   -19.725541    2.4475162  -0.82816958   -9.7772725   -233.08643  -0.75931367    -9.732056    198.41955  -0.63857146   -19.275772  -0.82730027  -0.84347541   -469.92164 
   16500    471.82374    284.00939    325.65628    451.84622    303.44573    2.5043595  -0.89001069   -19.779411   -233.11127  -0.81043205   -19.722009    2.5039134  -0.79633479   -9.7510361   -233.08159  -0.76328754   -9.6974935    198.40195  -0.62460826   -19.263753  -0.82667823  -0.84289627    -469.9216 
   16600    471.82374    293.33026    306.87814     476.3963    303.59241    2.5029425  -0.87162554   -19.784079    -233.1022  -0.83501349   -19.691143    2.5109619  -0.77040873   -9.7437051   -233.07417   -0.7957778   -9.6885388    198.37055  -0.60530124   -19.276905   -0.8260562  -0.84231713   -469.92156 
   16700    471.82374    282.62717    323.82829    458.61381    303.46806    2.5005175  -0.85267512   -19.769331   -233.06639   -0.8317683   -19.709115    2.5260119  -0.74417408   -9.7467623   -233.06248  -0.79397765   -9.7090288    198.35329  -0.58667525   -19.260151  -0.82543417  -0.84173799   -469.92152 
   16800    471.82374    298.27664    319.09114    460.12619    303.31321    2.4726274  -0.82964067   -19.757142   -233.05569   -0.8347305    -19.72008    2.5009269  -0.72359635   -9.7539773   -233.04499   -0.8230554   -9.7126319    198.35826  -0.58047418    -19.25584  -0.82481213  -0.84115885   -469.92148 
   16900    471.82374    293.42772    277.92374    449.18834    303.48337    2.4555178  -0.82220322   -19.766821   -233.04485  -0.79582947    -19.71832    2.5076541  -0.71882001   -9.7279617   -233.02675  -0.78090594   -9.6997403    198.36966  -0.58360263   -19.282706   -0.8241901  -0.84057971   -469.92144 
   17000    471.82374    279.58752    282.11746    431.24258    303.45442    2.4855334  -0.82726584    -19.74876   -233.03139  -0.78036371   -19.709468    2.5383601  -0.72783698   -9.7226517   -233.01836  -0.76310909    -9.725914    198.35984  -0.61722077   -19.288152  -0.82356806  -0.84000057   -469.92141 
   17100    471.82374    245.59059    262.45105    417.69661    303.27614     2.476561  -0.86409348    -19.74055   -233.02209  -0.79729028   -19.750015    2.5080428  -0.78394082   -9.7066234   -232.99432  -0.78352432   -9.7674517     198.3735  -0.60947413   -19.273493  -0.82294603  -0.83942143   -469.92137 
   17200    471.82374     221.8657    240.47853    376.48757     303.1691    2.4836047  -0.88257081   -19.723906   -233.01947  -0.77478905   -19.761064     2.491866  -0.81415791   -9.6911112   -232.98276  -0.76773152   -9.7614637    198.37935  -0.63419223   -19.288777  -0.82232399  -0.83884229   -469.92133 
   17300    471.82374     184.7608     226.0742    318.66918    303.18469    2.5110994  -0.86901013   -19.726934   -232.99967  -0.75994736   -19.721016    2.4937473  -0.79906453    -9.685141   -232.98081  -0.72827809   -9.7059871    198.38994  -0.64708392   -19.294519  -0.82170196  -0.83826315   -469.92129 
   17400    471.82374    197.72969    189.72527    281.63262    303.41016    2.4841258  -0.82704249     -19.7046   -233.00419  -0.74198913   -19.705405    2.4392937  -0.75272337   -9.6806283   -232.99367  -0.69441925   -9.6899672    198.40294  -0.66954958   -19.317342  -0.82107993  -0.83768401   -469.92125 
   17500    471.82374    193.13814    217.83559    304.44354    303.27968    2.4890129  -0.82964942   -19.697543   -233.00143  -0.70694809   -19.719433    2.4595995  -0.74412441   -9.7019455   -232.98746  -0.63865466   -9.7290316    198.41184   -0.6686862   -19.341905  -0.82045789  -0.83710487   -469.92121 
   17600    471.82374    188.96462    212.56651    324.10627    303.38236    2.4948936  -0.80545588   -19.709028   -232.99845  -0.69633888   -19.748756    2.4703414  -0.72888828   -9.7098783   -232.98775  -0.61146433   -9.7610188    198.40298  -0.63737526   -19.340929  -0.81983586  -0.83652573   -469.92118 
   17700    471.82374    179.72536    175.57505    308.09712    303.52306    2.4850116  -0.81439574   -19.722409   -232.98965   -0.7303931   -19.713187    2.4702366  -0.72555687   -9.7168201    -232.9734  -0.66524996   -9.7282714     198.4055  -0.62573088    -19.33203  -0.81921382  -0.83594658   -469.92114 
   17800    471.82374     174.3386    161.05074    283.82451    303.34461    2.4655499  -0.79532641   -19.722966   -232.97124  -0.76766329   -19.694692    2.4735309  -0.68951834   -9.7243394   -232.95068  -0.71365079   -9.6989848     198.4264  -0.61842602   -19.325043  -0.81859179  -0.83536744    -469.9211 
   17900    471.82374    153.33692    200.02157    300.23983    303.38232     2.480872  -0.78982595   -19.708187   -232.95823  -0.79058681   -19.703928    2.4876807  -0.69737929   -9.7051821   -232.92435  -0.75224634   -9.7048613    198.46729  -0.64178823   -19.313449  -0.81796975   -0.8347883   -469.92106 
   18000    471.82374    196.45191    176.78176    318.75568    303.28326     2.462387  -0.78768001   -19.659673   -232.96428  -0.80330888   -19.722434     2.456074  -0.68580432   -9.6600777   -232.95023  -0.76577771   -9.7044597    198.47758  -0.63643859   -19.300137  -0.81734772  -0.83420916   -469.92102 
   18100    471.82374    186.54905    243.48996    314.47223    303.17972    2.4630832    -0.758078   -19.646053   -232.98605  -0.81202273   -19.737369    2.4696181  -0.64934074   -9.6285175   -232.97844  -0.78778822   -9.7361292    198.45257  -0.63307349   -19.300737  -0.81672569  -0.83363002   -469.92098 
   18200    471.82374    196.21355    177.39196    340.00429    303.31197    2.4642415  -0.75648303   -19.662751   -232.99054  -0.81010109    -19.73805    2.4697075  -0.65580918   -9.6738129    -232.9824  -0.78785294   -9.7263507     198.4724  -0.62341989   -19.309898  -0.81610365  -0.83305088   -469.92095 
   18300    471.82374    176.64262     190.2143      301.201    303.21317    2.4588552  -0.77280498    -19.67038   -232.98968  -0.80316737   -19.717553    2.4789241  -0.69796545   -9.6803032   -232.97856  -0.80656954   -9.7213019    198.47385  -0.61950523   -19.324742  -0.81548162  -0.83247174   -469.92091 
   18400    471.82374    174.23209    170.96325    284.03602    303.26869    2.4612041  -0.77097169   -19.637303   -232.97419  -0.83301119   -19.733702    2.4621353  -0.69124039   -9.6567984   -232.95386  -0.81936017   -9.7083872    198.47873  -0.64222383   -19.339159  -0.81485958   -0.8318926   -469.92087 
   18500    471.82374    176.38503    160.99194    282.88757    303.10415    2.4346406  -0.79795766   -19.606913    -232.9696  -0.78976774   -19.728809    2.4328452  -0.70881697   -9.5931792   -232.95333  -0.76668475   -9.7078856    198.46625  -0.67072605   -19.308205  -0.81423755  -0.83131346   -469.92083 
   18600    471.82374    113.66832    140.73961    275.80661     303.3435     2.397968  -0.81429964   -19.596489   -232.97493  -0.80171508   -19.690877    2.4162282  -0.72892629   -9.5930332   -232.97709  -0.77058191   -9.6699198    198.47837   -0.6823993   -19.306221  -0.81361551  -0.83073432   -469.92079 
   18700    471.82374    103.09346      124.267    186.98847    303.63053    2.4083881  -0.81999716   -19.600073   -232.98307  -0.78376959   -19.673313    2.4008538  -0.73947003   -9.5992719    -232.9951  -0.74774247   -9.6669475    198.47178  -0.67299436   -19.324483  -0.81299348  -0.83015518   -469.92075 
   18800    471.82374    110.65717    97.855297    222.85274    303.14569    2.4134132  -0.81331809   -19.560482   -232.99224  -0.78241436   -19.671392    2.4024937  -0.73020996   -9.5566784   -233.01923  -0.76107981   -9.6672816    198.47958  -0.66502055   -19.324781  -0.81237144  -0.82957604   -469.92072 
   18900    471.82374     98.90051    110.67449    189.34026    303.40299    2.4454738  -0.81787831   -19.552039    -232.9798  -0.79200418   -19.656225    2.4411063   -0.7286883   -9.5640703   -232.98022  -0.76650511   -9.6596376    198.48199  -0.65494116   -19.301643  -0.81174941   -0.8289969   -469.92068 
   19000    471.82374     64.91076    82.917662    164.28526    303.52258     2.442015  -0.81588166   -19.549886   -233.01037  -0.79139439   -19.623093    2.4467526  -0.71616936   -9.5387236   -233.02118  -0.76335543   -9.6386798    198.46757  -0.67368264   -19.297904  -0.81112738  -0.82841776   -469.92064 
   19100    471.82374     63.90099    43.384101     157.6282    303.40902    2.4391964  -0.80225605   -19.530874   -233.03205  -0.78443319   -19.638281     2.434553   -0.6921609   -9.4998245   -233.04311  -0.75721389    -9.649157    198.46194  -0.67583889   -19.281397  -0.81050534  -0.82783862    -469.9206 
   19200    471.82374    52.549255    90.907308     176.2403    303.29119    2.4400358  -0.82320146   -19.512356   -233.03697  -0.77128432   -19.637493    2.4552428  -0.71415323   -9.4721814   -233.03411  -0.73691412   -9.6304357    198.46809  -0.66474206   -19.282948  -0.80988331  -0.82725948   -469.92056 
   19300    471.82374    54.671509    56.226145    127.52328    303.41811    2.4476461  -0.82959706   -19.495881   -233.01423  -0.75497259   -19.648189    2.4817503  -0.72686101   -9.4862438    -233.0202  -0.71051554   -9.6050557    198.47553  -0.65991088    -19.29597  -0.80926127  -0.82668034   -469.92052 
   19400    471.82374    33.773419    30.428531    109.95005    303.16488    2.4630928  -0.83847527   -19.485066   -233.02594  -0.73392828   -19.670587    2.4931943  -0.76312883   -9.4564933   -233.01421   -0.7087258   -9.6478504    198.49112  -0.66388545   -19.311474  -0.80863924  -0.82610119   -469.92049 
   19500    471.82374   -6.2495798    18.197147    76.625028    303.40361    2.4659576  -0.85196736    -19.46742   -233.02914  -0.74129846   -19.659373     2.515227  -0.81172697   -9.4490932   -233.01185  -0.70012309   -9.6274611    198.47302  -0.64783433   -19.307474   -0.8080172  -0.82552205   -469.92045 
   19600    471.82374   -23.378613    -10.92232    68.065319    303.30839    2.4823269  -0.87089534   -19.449118   -233.02004  -0.75219131   -19.663987    2.5125008  -0.81316322   -9.4541896   -232.99675  -0.71537681    -9.610737    198.47025  -0.64764357   -19.310024  -0.80739517  -0.82494291   -469.92041 
   19700    471.82374   -36.378348   -15.371202    27.197744    303.23801    2.4783037  -0.87788363    -19.45547   -233.01577  -0.75824966   -19.682255    2.5041193  -0.82025401   -9.4387475   -232.99293  -0.70269627   -9.6437351    198.46195  -0.63732785   -19.300654  -0.80677314  -0.82436377   -469.92037 
   19800    471.82374   -42.172165   -9.6813395    38.543152    303.41122    2.4626834  -0.85916007   -19.465356   -233.02221  -0.73528994   -19.687989    2.4786852  -0.77573202   -9.4668021   -232.99886  -0.68533174   -9.6503651    198.45707  -0.63636918   -19.299569   -0.8061511  -0.82378463   -469.92033 
   19900    471.82374    6.7883969   -34.019234    73.655536    303.06082    2.4530526  -0.84789928   -19.481287   -233.02382  -0.73702049   -19.657818    2.4629504  -0.75917245   -9.4915016   -232.99605  -0.67950173   -9.6351064    198.45521  -0.62327355   -19.302751  -0.80552907  -0.82320549   -469.92029 
   20000    471.82374    3.7010642   -36.479144    61.870191    303.26018    2.4586646   -0.8555051   -19.461126   -233.05394  -0.72408495   -19.647768    2.4553546  -0.74814555   -9.4837655   -233.01653  -0.67977005   -9.6270847    198.45795  -0.62657922   -19.293477  -0.80490703  -0.82262635   -469.92026 
   20100    471.82374    -41.47852   -42.334193   -7.7158941    303.51927    2.4358325  -0.85730112   -19.459339   -233.07462  -0.73320856   -19.667756    2.4353781  -0.77235599   -9.4826462   -233.05298  -0.70389097   -9.6347742    198.45614  -0.62044846   -19.296033    -0.804285  -0.82204721   -469.92022 
   20200    471.82374    -47.54438   -44.625087   -7.1166986    303.32987    2.4255041  -0.85446097   -19.459477   -233.09132  -0.73265501   -19.658436    2.4143039  -0.76266349   -9.4528167    -233.0911  -0.70861402    -9.657723    198.44308  -0.60134541   -19.308696  -0.80366296  -0.82146807   -469.92018 
   20300    471.82374   -60.309521   -76.450219    24.732303    302.99215    2.4169197  -0.86028608    -19.44096   -233.08818  -0.72640483   -19.638949    2.4228084  -0.76609671   -9.4212891   -233.10592  -0.70803073   -9.6543523     198.4441   -0.6301147   -19.312238  -0.80304093  -0.82088893   -469.92014 
   20400    471.82374   -91.089346    -81.27572   -36.926081    303.48741    2.4339523   -0.8713029   -19.428813   -233.07466  -0.74989645   -19.651255     2.447783  -0.77255451   -9.4099025    -233.0908  -0.73541917   -9.6739934    198.41784  -0.62978018   -19.314857   -0.8024189  -0.82030979    -469.9201 
   20500    471.82374   -74.307874   -107.55815   -63.629894    303.26266    2.4575548  -0.86237903   -19.441554   -233.09315  -0.74359948   -19.684213    2.4741379  -0.76565936   -9.4306952      -233.12  -0.72950463   -9.6938842    198.41328  -0.60393886   -19.324132  -0.80179686  -0.81973065   -469.92006 
   20600    471.82374   -112.39619   -88.539721   -59.759825    303.43141    2.4617233   -0.8601342   -19.434855   -233.10048  -0.71011342    -19.68332    2.4848445  -0.78173459    -9.425591   -233.14288  -0.67605464   -9.6987045     198.4104  -0.60367893   -19.324539  -0.80117483  -0.81915151   -469.92003 
   20700    471.82374   -91.085327   -76.285093   -67.114749    303.45599    2.4745079  -0.84768492   -19.427458   -233.08932  -0.70524827   -19.661613    2.5020012  -0.76177553   -9.4338837   -233.13646  -0.66478599    -9.677214     198.3976  -0.60809672   -19.335852  -0.80055279  -0.81857237   -469.91999 
   20800    471.82374   -90.064514   -63.834449   -33.426929    303.06067    2.4488783  -0.86348462   -19.435878   -233.08911  -0.68922357   -19.653935    2.4649718  -0.80253299    -9.408198   -233.11666  -0.65665634   -9.6444774    198.38959  -0.60389387   -19.347874  -0.79993076  -0.81799323   -469.91995 
   20900    471.82374   -106.32774   -81.580552   -22.649956     303.1617    2.4417419  -0.87910963    -19.42439   -233.08744  -0.68257983   -19.693889    2.4612515  -0.78977117   -9.3984226   -233.10361  -0.65767977   -9.6758034    198.39703  -0.58756237   -19.341711  -0.79930872  -0.81741409   -469.91991 
   21000    471.82374   -93.844849   -100.25888   -57.131775    303.32108    2.4536745  -0.84513917   -19.421131   -233.08632  -0.66819746   -19.679649    2.4624395  -0.73712136   -9.4149289   -233.08385  -0.62729155   -9.6507135    198.37389  -0.57530162   -19.348921  -0.79868669  -0.81683495   -469.91987 
   21100    471.82374   -138.99067   -108.75377   -61.340683    303.54054    2.4635713  -0.84968582   -19.452985   -233.10238  -0.70685036   -19.669307    2.4579718  -0.75641276   -9.4557805   -233.09685  -0.65651103   -9.6300851    198.36452  -0.57197448   -19.367739  -0.79806466   -0.8162558   -469.91983 
   21200    471.82374   -69.334842   -124.29522   -68.060392    303.17198    2.4453641  -0.82870282   -19.429366   -233.10512  -0.72954126   -19.667536    2.4315142  -0.72665711     -9.41625   -233.08911  -0.68600868   -9.6413728    198.35375  -0.57912062   -19.387037  -0.79744262  -0.81567666    -469.9198 
   21300    471.82374   -91.482633   -99.303963   -68.364236    303.44482    2.4339737   -0.8479478    -19.46112   -233.10815  -0.75357695   -19.679721    2.4433072  -0.74967211   -9.4214387   -233.10061  -0.70177216   -9.6622548    198.35916  -0.57540709   -19.408118  -0.79682059  -0.81509752   -469.91976 
   21400    471.82374   -95.440125   -83.345389    -50.44829    303.15536    2.4388121  -0.85198445   -19.446264    -233.1039   -0.7584874    -19.68464    2.4320024  -0.76585878   -9.4322664   -233.10559  -0.70742585   -9.6749703    198.34534  -0.57560377   -19.375774  -0.79619855  -0.81451838   -469.91972 
   21500    471.82374   -132.76413   -107.73936   -53.133959    303.21164    2.4338093  -0.84390999   -19.441478   -233.11618   -0.7178764   -19.692826    2.4165625  -0.72631419   -9.4335763   -233.09708  -0.68348034   -9.6802417     198.3442  -0.57307475   -19.358562  -0.79557652  -0.81393924   -469.91968 
   21600    471.82374   -88.062303   -107.21497   -52.261564    303.31762    2.4080544  -0.83248181   -19.471114   -233.11639  -0.68819864   -19.699678    2.4158322  -0.74053317   -9.4713926   -233.09801  -0.64929776    -9.663801    198.35503  -0.57903193   -19.374512  -0.79495448   -0.8133601   -469.91964 
   21700    471.82374   -104.58925   -101.42361   -80.265944    303.22172    2.3976862  -0.83124746   -19.459636   -233.12603  -0.68839711   -19.733039    2.4397812  -0.77920292   -9.4779285   -233.09867   -0.6614999   -9.7244518    198.34832  -0.56927307   -19.371868  -0.79433245  -0.81278096    -469.9196 
   21800    471.82374   -138.22573    -127.9128   -80.051812    303.10775    2.4019389  -0.85650383   -19.463081   -233.13615   -0.6846851   -19.738409    2.4407898  -0.80901275   -9.5018548   -233.12777  -0.68519332   -9.7524257    198.33368  -0.58835184   -19.344914  -0.79371041  -0.81220182   -469.91957 
   21900    471.82374   -141.74961   -153.64508   -129.55792    303.46524    2.4165943  -0.87007814    -19.44844   -233.12212   -0.6826173    -19.73645     2.453033  -0.82177684   -9.4858921   -233.11687  -0.66222841   -9.7363753    198.33609  -0.62174551   -19.337361  -0.79308838  -0.81162268   -469.91953 
   22000    471.82374   -143.57233   -123.55135   -111.89178    303.25922    2.4174967  -0.90076157   -19.434467   -233.14506  -0.67977349   -19.731724     2.422508  -0.82834046   -9.4679643   -233.13512  -0.64953343   -9.7330315     198.3321  -0.64712774   -19.322746  -0.79246635  -0.81104354   -469.91949 
   22100    471.82374   -163.88069   -139.19693   -111.44311    303.11565    2.4013305  -0.91086645   -19.455676   -233.13174  -0.70364772   -19.727736     2.405677  -0.80916102    -9.475911   -233.13176  -0.67316231   -9.7399671     198.3233  -0.66088801   -19.320786  -0.79184431   -0.8104644   -469.91945 
   22200    471.82374   -168.55932   -154.27619   -135.89059    303.17419    2.3928647  -0.90948071   -19.434386   -233.15387  -0.68123443    -19.65785     2.418608  -0.80829038   -9.4747354   -233.15224  -0.62585791   -9.6713685    198.32946   -0.6306129   -19.310644  -0.79122228  -0.80988526   -469.91941 
   22300    471.82374   -144.89813    -112.2906   -105.53645    303.03335    2.4004066  -0.86895952   -19.427868   -233.18387  -0.69613101   -19.677931    2.4187671  -0.76651541   -9.4538073   -233.18023   -0.6312348   -9.6737181    198.33789  -0.61132089   -19.301668  -0.79060024  -0.80930612   -469.91937 
   22400    471.82374   -154.61616   -129.80182   -166.91938    303.20605    2.4074294  -0.87932165   -19.428326   -233.19235  -0.70435813   -19.681843    2.4211618  -0.78348214   -9.4330251   -233.18921  -0.65394597   -9.6733552    198.33403  -0.58789886   -19.285647  -0.78997821  -0.80872698   -469.91934 
[...]
  999200    471.82374    16.025609    42.644894    58.971035    302.98775    8.4881959    4.7514332   -19.190278   -227.00698     4.825467   -19.257315      8.49869      4.85253    -9.200051   -226.99214    4.8435704   -9.2438526    204.43338    4.9970472   -18.856563    5.2860532    4.8483183   -469.54496 
  999300    471.82374    16.628577    11.651901    25.992433    302.93666    8.5067377    4.7886413   -19.198197   -227.03445    4.8208885   -19.259996    8.5092774    4.8784462   -9.2077682   -227.00986    4.8555328   -9.2433287    204.42547    5.0019976   -18.854146    5.2866752    4.8488975   -469.54492 
  999400    471.82374   -31.304853   -27.525735    2.3238415    303.13383    8.4896294    4.8297234   -19.197188   -227.03497    4.8105016   -19.273717    8.4883599    4.9391021   -9.2043158   -227.00585    4.8496349   -9.2507892    204.41005    5.0249731   -18.822857    5.2872972    4.8494766   -469.54488 
  999500    471.82374   -14.396072   -11.306272    3.4483048    303.25935    8.5092574    4.8548893   -19.214547   -227.04163    4.7843725   -19.289134    8.5175687    4.9511495   -9.2423911   -227.01773    4.8397873   -9.2629184    204.41193    4.9866848   -18.815081    5.2879193    4.8500557   -469.54484 
  999600    471.82374   -31.401039   -35.818857    21.649636      303.081    8.5275824    4.8370792   -19.242358   -227.05534     4.820905   -19.290746    8.5304312    4.9327841   -9.2628213   -227.03151    4.8917948   -9.2628608    204.41557    4.9530333   -18.817455    5.2885413    4.8506349   -469.54481 
  999700    471.82374   -56.428547    -39.10283   -5.8724749    302.95557     8.531147     4.827326   -19.223078   -227.04139    4.7909925   -19.271899    8.5453191    4.9222487   -9.2534067   -227.01175    4.8427617   -9.2507324    204.42369    4.9485644   -18.804106    5.2891633     4.851214   -469.54477 
  999800    471.82374   -50.795852   -45.802749   -19.702092     302.9873    8.5405748    4.8339251   -19.205583   -227.03575    4.7896723   -19.284843    8.5768513     4.925571   -9.2716929   -227.01882    4.8369603    -9.281636    204.42692    4.9317257   -18.807365    5.2897854    4.8517932   -469.54473 
  999900    471.82374   -46.918766   -23.760781   -18.337222    302.83491    8.5469375    4.8028514   -19.214279   -227.05168    4.7707693   -19.267206    8.5812676    4.8909155   -9.2555761   -227.02403    4.7925112   -9.2801514    204.41905     4.912111   -18.802795    5.2904074    4.8523723   -469.54469 
 1000000    471.82374   -55.479671   -59.066337   -28.978383    303.05693    8.5321002    4.7923226   -19.202224   -227.04134    4.7578803   -19.282395    8.5697415    4.8694556   -9.2041173   -227.01891    4.7649947    -9.290149    204.42632      4.93995    -18.80546    5.2910294    4.8529514   -469.54465 
 1000100    471.82374   -80.785977   -95.291651   -76.445781    303.05818    8.5235462    4.8141983   -19.195723   -227.02697    4.7577658    -19.26978    8.5604879    4.8853315   -9.2056281   -227.00976    4.8011368   -9.2575969     204.4515    4.9369785   -18.799996    5.2916515    4.8535306   -469.54461 
 1000200    471.82374   -80.060442   -102.09488   -70.485323    303.42408     8.513237    4.8182951   -19.179975   -227.04969    4.7490694   -19.254695    8.5364637    4.9080025   -9.1756046   -227.03955    4.7984297    -9.229716     204.4473    4.9361712    -18.81501    5.2922735    4.8541097   -469.54458 
 1000300    471.82374   -86.288878   -65.012866   -56.047504    303.06762    8.5171255    4.8383678   -19.167057   -227.07119     4.717258   -19.243384    8.5188087    4.9131775   -9.1640502    -227.0685    4.7530711   -9.2217797      204.419    4.9383352   -18.841421    5.2928955    4.8546889   -469.54454 
 1000400    471.82374   -121.32724   -98.629604    -87.40157    303.26923    8.5237703    4.8420804   -19.174249    -227.0565    4.7241057   -19.212861    8.5212931     4.931011   -9.1780901   -227.03894    4.7448478   -9.2346841    204.40448     4.915858   -18.853063    5.2935176     4.855268    -469.5445 
 1000500    471.82374   -113.08411   -97.898383   -97.786937    303.12829    8.5171886    4.8153249   -19.179515   -227.06494    4.7271498    -19.20954    8.5384996    4.9176512   -9.1773241   -227.07578    4.7540919   -9.2139162    204.40559    4.9177209   -18.857121    5.2941396    4.8558471   -469.54446 
 1000600    471.82374    -150.1874   -129.49103   -121.62486    303.22693    8.5072269    4.8097676   -19.180647   -227.07775    4.7615721   -19.180887    8.5142604    4.9142398   -9.1798156   -227.07604    4.7910908    -9.177649    204.38185    4.8805293   -18.846404    5.2947616    4.8564263   -469.54442 
 1000700    471.82374   -189.48069    -147.8503   -131.51768    303.47031    8.5205799    4.7931501   -19.147983   -227.10073    4.7912625   -19.183846    8.5476164    4.8916801   -9.1604115   -227.09841     4.823217   -9.1712389    204.38413    4.8339938   -18.877099    5.2953837    4.8570054   -469.54438 
 1000800    471.82374   -156.17741   -161.40239   -162.36631    303.55103    8.5374608    4.7978245   -19.132053   -227.08157    4.7948586   -19.204737    8.5679403    4.9111223   -9.1436755   -227.06787    4.8478906   -9.1619606    204.36724    4.8291655   -18.859923    5.2960057    4.8575846   -469.54435 
 1000900    471.82374   -198.32997   -153.90958    -127.0641    303.54269    8.5275203    4.7704403   -19.101139   -227.07937    4.7738404   -19.175284    8.5657569    4.8735035   -9.1135036   -227.04106    4.8082221    -9.139026    204.38223    4.8338664   -18.872854    5.2966277    4.8581637   -469.54431 
 1001000    471.82374    -161.8255   -117.37603   -120.86489    302.79989    8.5292635    4.7603642   -19.088584   -227.07306     4.787042   -19.202102    8.5596255    4.8483821   -9.0972379   -227.03632    4.8501486   -9.1738492    204.38112    4.8310212   -18.853785    5.2972498    4.8587428   -469.54427 
 1001100    471.82374   -149.65234   -135.52451   -139.07022    303.02103    8.5210718    4.7828171   -19.109405   -227.07169    4.7750551   -19.195638     8.540696    4.8591553   -9.1181947   -227.03914    4.8257358   -9.1933054    204.36884    4.8415281   -18.860434    5.2978718     4.859322   -469.54423 
 1001200    471.82374   -178.61957    -127.3903   -125.86715    303.23091    8.5476339    4.7906752   -19.109827    -227.0564    4.7727166   -19.230523    8.5797037    4.8495442   -9.1343202   -227.05742    4.7968735   -9.2357011    204.37893    4.8721132   -18.880899    5.2984938    4.8599011   -469.54419 
 1001300    471.82374    -184.5878   -143.15332   -139.68143    303.23366    8.5319734    4.7720452   -19.127672   -227.04212    4.7817658   -19.238221    8.5423014    4.8261523   -9.1450589   -227.03962    4.7854351   -9.2708563    204.38427    4.8702138   -18.872604    5.2991159    4.8604803   -469.54415 
 1001400    471.82374   -172.33752   -176.39764   -194.37044    303.44942    8.5145352    4.7574686   -19.139249   -227.06479    4.7568687   -19.246908    8.5204728    4.8306701   -9.1616063   -227.07085    4.7791367   -9.2929522    204.37953      4.88757   -18.895317    5.2997379    4.8610594   -469.54412 
 1001500    471.82374   -185.74606   -175.29832   -159.72302    303.27044    8.5210312    4.7554754   -19.129117   -227.09038    4.7330509   -19.249026    8.5428102    4.8426476   -9.1461951   -227.09943    4.7513852   -9.2712677    204.38442    4.9004229    -18.90617    5.3003599    4.8616385   -469.54408 
 1001600    471.82374   -173.41693   -150.82702   -195.55576    302.98617      8.51679    4.7424127    -19.12413   -227.11111    4.7457854   -19.237805    8.5146012    4.8508093   -9.1575875   -227.13361    4.7730835   -9.2506239    204.37668    4.8820649   -18.894066     5.300982    4.8622177   -469.54404 
 1001700    471.82374   -173.27709   -154.62465   -160.62333    302.83747    8.5300332    4.7333445   -19.126181   -227.09767    4.7528079   -19.255365    8.5153817    4.8340031    -9.142298   -227.12341     4.767402   -9.2689624     204.4021    4.9051203   -18.901345     5.301604    4.8627968     -469.544 
 1001800    471.82374   -191.70888    -166.3079   -198.81371    303.36905    8.5198175    4.7598456   -19.129277   -227.09084    4.7770157   -19.231545    8.5195749    4.8404294   -9.1404762   -227.10299    4.8081342   -9.2118191    204.39148     4.902431   -18.896768    5.3022261     4.863376   -469.54396 
 1001900    471.82374   -203.44333   -194.87136   -196.30945    303.35419    8.5041819    4.7531778   -19.124404   -227.08033    4.7619459   -19.188805    8.5043135    4.8022677   -9.1176877    -227.0942    4.7965325   -9.1692688    204.38152    4.9281004    -18.87392    5.3028481    4.8639551   -469.54392 
 1002000    471.82374   -175.40163    -201.9607   -219.43696    303.17025    8.5251971    4.7621808   -19.138642   -227.10132    4.7610307   -19.210534    8.5247995    4.8204809   -9.1509208   -227.09865    4.7849994   -9.1822499    204.38856    4.9405168   -18.921476    5.3034701    4.8645343   -469.54389 
 1002100    471.82374   -208.04635   -187.28011   -213.55904    303.13159    8.5447526     4.787323   -19.123238   -227.10428    4.7698071   -19.230603    8.5561125    4.8712304   -9.1230098   -227.09832    4.7959728   -9.1824769     204.3904    4.9400924   -18.912673    5.3040922    4.8651134   -469.54385 
 1002200    471.82374   -213.47794   -208.70917   -190.35199     303.3056    8.5491908    4.7649848   -19.167993     -227.064    4.7731458   -19.244056    8.5640489    4.8662596    -9.165119   -227.07324    4.8042521   -9.2098531    204.38294    4.9406988   -18.923035    5.3047142    4.8656925   -469.54381 
 1002300    471.82374   -209.74989   -239.49018   -240.06002    303.24789    8.5497198    4.7574383   -19.177428   -227.05051    4.7926493   -19.238882    8.5707365    4.8629914   -9.1630152   -227.02677    4.8336786   -9.2275209    204.40595     4.946537   -18.920221    5.3053362    4.8662717   -469.54377 
 1002400    471.82374   -242.86908   -225.68176   -225.46334    303.38199    8.5350473    4.7522451   -19.220162   -227.00945    4.7932168   -19.216119    8.5651835    4.8482015   -9.2165764   -227.01019      4.80601   -9.2066835    204.39842    4.9460702   -18.933675    5.3059583    4.8668508   -469.54373 
 1002500    471.82374    -230.6039   -210.53294   -245.39634    303.11135    8.5495265    4.7350342   -19.250673   -226.99994     4.827821   -19.206346    8.5797501    4.8261893    -9.259413   -227.01501    4.8509117   -9.2123752    204.39356    4.9580793   -18.933543    5.3065803      4.86743   -469.54369 
 1002600    471.82374   -217.02547   -246.26155   -219.06394     303.0083    8.5224589    4.7494009   -19.237042   -226.99602    4.8766306    -19.22048    8.5547525    4.8529352   -9.2470477    -227.0045    4.9255574   -9.2021661    204.38008    4.9504887   -18.919986    5.3072023    4.8680091   -469.54366 
 1002700    471.82374   -221.87949   -230.57003    -221.2326    303.19827    8.5131624    4.7432772   -19.228352    -226.9834    4.9102742   -19.207262    8.5330991     4.814785   -9.2284124   -227.00746    4.9556394    -9.198506    204.40122    4.9637177   -18.917337    5.3078244    4.8685882   -469.54362 
 1002800    471.82374   -216.99642   -225.50059   -245.84478     303.2371    8.5362702    4.7194586   -19.242045   -226.97393    4.8952524   -19.220294    8.5542675    4.8215156   -9.2334104   -226.99201    4.9463157   -9.2357663    204.42257    4.9534562   -18.909738    5.3084464    4.8691674   -469.54358 
 1002900    471.82374   -233.18981   -216.96812   -232.89077    303.13289    8.5357492    4.6902205   -19.246305    -226.9775    4.8747696   -19.200593     8.547364    4.8019537   -9.2491239   -227.00188    4.9412702   -9.2223398     204.4235    4.9541697    -18.91538    5.3090684    4.8697465   -469.54354 
 1003000    471.82374   -196.86561   -212.71358   -213.80151    303.01124    8.5122467    4.6397906   -19.232998   -226.99722     4.856269   -19.200538     8.520722    4.7445544   -9.2576963   -227.01206    4.9179009    -9.230871    204.41439    4.9382418   -18.899688    5.3096905    4.8703257    -469.5435 
 1003100    471.82374   -239.53074    -198.4689   -244.45643    303.58343    8.4997578    4.6371901   -19.233586   -226.96635    4.8673019   -19.225859    8.5089747    4.7268102   -9.2591575   -226.96781    4.9241617   -9.2625154    204.42327    4.9302477   -18.879529    5.3103125    4.8709048   -469.54346 
 1003200    471.82374   -185.06296   -200.37698   -247.57591    303.10981    8.4748201    4.6496374   -19.218791   -226.94717    4.8754372   -19.234669    8.4840544    4.7233553   -9.2243625   -226.96661    4.9279352   -9.2524197    204.43292    4.9303166   -18.877523    5.3109345    4.8714839   -469.54343 
 1003300    471.82374   -214.01696   -193.70528   -236.91391     303.1455    8.4821542    4.6262074   -19.218681   -226.95269    4.8789166   -19.249884    8.4943327    4.6883165   -9.2490657   -226.96258    4.9174467   -9.2651888    204.46807    4.9521765   -18.854288    5.3115566    4.8720631   -469.54339 
 1003400    471.82374      -190.76   -190.62732   -255.76944    302.77219    8.4878073    4.6101167   -19.233267   -226.96406    4.8872301   -19.233789    8.4951656    4.6740392    -9.275183   -226.97196    4.9074399   -9.2466584    204.47994    4.9666144   -18.842786    5.3121786    4.8726422   -469.54335 
 1003500    471.82374   -236.12079   -230.50108   -252.49668    303.12801    8.4911139    4.5997149   -19.230493    -226.9858    4.8924775   -19.211208    8.5014903    4.6569556   -9.2456477   -226.96074    4.9044209   -9.2184881     204.5107    4.9555173   -18.833117    5.3128006    4.8732214   -469.54331 
 1003600    471.82374   -239.72924   -253.97653   -308.97236    303.21451    8.4952512    4.5779563   -19.233112   -226.95292     4.875059   -19.208624    8.5254671    4.6404719   -9.2350573   -226.93045    4.8743104   -9.2106261    204.54374    4.9403892   -18.818777    5.3134227    4.8738005   -469.54327 
 1003700    471.82374    -252.0794   -237.57414   -299.38348    303.51049    8.5198547    4.5793569   -19.217039   -226.93145    4.8399827   -19.212971    8.5361157    4.6410301   -9.2353835   -226.91895    4.8285497   -9.1870786    204.56169    4.9300349   -18.808837    5.3140447    4.8743796   -469.54323 
 1003800    471.82374   -235.66649    -239.7884    -311.2046    303.23204    8.5173795    4.5983981   -19.209693   -226.91188     4.801471    -19.19111    8.5284085     4.661228    -9.217273   -226.91373     4.815175   -9.1551965    204.53455    4.9617832   -18.805468    5.3146667    4.8749588    -469.5432 
 1003900    471.82374   -253.95172   -260.06562   -263.85726     303.4029    8.5178096    4.5677949   -19.200213   -226.94025     4.809005   -19.183706    8.5165133    4.6487936   -9.1861073   -226.91938    4.8390879   -9.1292884    204.57041    4.9461698    -18.81141    5.3152888    4.8755379   -469.54316 
 1004000    471.82374   -255.86482   -256.47747   -273.87109    303.01314    8.5366399    4.5649359   -19.181601   -226.91303     4.798312   -19.192217    8.5290265    4.6669869    -9.165258    -226.8873    4.8339517   -9.1560337    204.55205    4.9648372   -18.834955    5.3159108    4.8761171   -469.54312 
 1004100    471.82374   -260.66112    -268.8325   -326.92439    303.04993    8.5260897    4.5565384   -19.185475   -226.92786    4.8102597   -19.164624    8.5281523    4.6902631   -9.1611515   -226.91043    4.8736351   -9.1263308    204.55617    4.9368168   -18.851008    5.3165328    4.8766962   -469.54308 
 1004200    471.82374   -314.51195   -292.64413   -327.25542    303.36492    8.5483359    4.5605863   -19.191533   -226.92439    4.8068492   -19.156727    8.5363439    4.6925095   -9.1966669   -226.91681    4.8552505   -9.1302996     204.5516    4.9712034   -18.835153    5.3171549    4.8772753   -469.54304 
 1004300    471.82374   -283.31571   -278.26776   -328.24735    303.13329    8.5684111    4.6024425   -19.197832   -226.91875    4.8078886   -19.165507    8.5631739    4.7022102   -9.2054088   -226.89522    4.8428798    -9.135848      204.542    4.9775329   -18.825599    5.3177769    4.8778545     -469.543 
 1004400    471.82374   -290.77152   -289.95198   -318.77367    303.31588    8.5669415    4.6072646   -19.186333   -226.90513    4.8132787   -19.157796    8.5741818    4.6787248   -9.1892126   -226.87992    4.8553937   -9.1394737    204.51551    4.9750774   -18.836902    5.3183989    4.8784336   -469.54297 
 1004500    471.82374   -305.72533   -266.39202   -321.49429    303.36923    8.5400783    4.6146582    -19.20422   -226.92711    4.8310201   -19.173608    8.5462959    4.6963907   -9.2149284   -226.88587    4.8662839   -9.1673565    204.50446    4.9728587   -18.850123     5.319021    4.8790128   -469.54293 
 1004600    471.82374   -284.23047   -297.06229   -336.68517    303.20324    8.5414826    4.6470559   -19.192114    -226.9419    4.8123287   -19.173434    8.5455012    4.7290568   -9.2101144   -226.92587    4.8098021   -9.1778968    204.52532    4.9817741   -18.829524     5.319643    4.8795919   -469.54289 
 1004700    471.82374   -296.70374   -290.46783   -319.62426    303.13507    8.5215208    4.6786199   -19.217101    -226.9337     4.808301   -19.175343    8.5337228    4.7634301   -9.2189617   -226.90799    4.8088867   -9.1833438    204.52737    5.0065052   -18.822574     5.320265     4.880171   -469.54285 
 1004800    471.82374   -322.21678   -306.73662   -366.94867     303.5227    8.4975558    4.7056514   -19.231785   -226.94216    4.7914158   -19.200217    8.5086167    4.7816123     -9.24665   -226.92984    4.7989016   -9.2028762    204.50477    5.0147205   -18.804457    5.3208871    4.8807502   -469.54281 
 1004900    471.82374   -304.68907   -292.54717   -304.67367    303.17426    8.5095216    4.7174858   -19.223388   -226.96959    4.8197666    -19.21222    8.5115815    4.7782739   -9.2509066   -226.98186    4.8399483   -9.1919602    204.48966    5.0147634    -18.80132    5.3215091    4.8813293   -469.54277 
 1005000    471.82374   -318.74806    -308.0066   -340.67226    303.30202    8.5219192    4.7309417   -19.214818   -226.97247    4.8619409    -19.21018    8.5134619    4.7911895   -9.2263084   -226.99428    4.8805965   -9.2117513    204.46821    5.0059522   -18.810023    5.3221311    4.8819085   -469.54274 
Loop time of 11997.3 on 512 procs for 1000000 steps with 808669 atoms

Performance: 14.403 ns/day, 1.666 hours/ns, 83.352 timesteps/s
99.9% CPU use with 512 MPI tasks x no OpenMP threads

MPI task timing breakdown:
Section |  min time  |  avg time  |  max time  |%varavg| %total
---------------------------------------------------------------
Pair    | 3537.2     | 8032.5     | 8621.1     |1067.0 | 66.95
Neigh   | 0.036244   | 11.613     | 13.418     |  74.1 |  0.10
Comm    | 378.99     | 1242       | 3677.3     |1329.7 | 10.35
Output  | 5.2453     | 5.3201     | 6.3404     |   2.1 |  0.04
Modify  | 64.622     | 95.312     | 106.64     |  63.8 |  0.79
Other   |            | 2611       |            |       | 21.76

Nlocal:    1579.43 ave 1818 max 0 min
Histogram: 16 0 0 0 16 0 0 12 232 236
Nghost:    4346.1 ave 4988 max 479 min
Histogram: 16 0 0 14 2 7 9 0 156 308
Neighs:    110828 ave 128068 max 0 min
Histogram: 16 0 0 16 0 0 0 12 216 252

Total # of neighbors = 56743734
Ave neighs/atom = 70.1693
Neighbor list builds = 1960
Dangerous builds = 0



Total wall time: 3:25:11
ost:    4577.44 ave 5132 max 248 min
Histogram: 16 0 0 0 16 3 13 0 40 424
Neighs:    110838 ave 128857 max 0 min
Histogram: 16 0 0 7 9 0 0 16 247 217

Total # of neighbors = 56749295
Ave neighs/atom = 70.1743
Neighbor list builds = 634
Dangerous builds = 0



Total wall time: 3:26:27
ave 126634 max 0 min
Histogram: 16 0 0 16 0 0 0 10 64 406

Total # of neighbors = 56760535
Ave neighs/atom = 70.1785
Neighbor list builds = 1233
Dangerous builds = 0



Total wall time: 3:31:06
