LAMMPS (28 Jun 2014)
# ------------------------ INITIALIZATION ----------------------------
echo both
#log		log.c
units           metal
dimension       3
boundary        p p p
atom_style      atomic
shell         mkdir  cfg
shell         mkdir  dump


# ----------------------- ATOM DEFINITION & Force Field -------------
read_data     NPT_relaxed.data       ##Read file dumped from simulation 1
  orthogonal box = (-20.2074 -8.08294 -121.036) to (20.2074 8.08294 20.4152)
  2 by 1 by 4 MPI processor grid
  reading atoms ...
  3280 atoms
  reading velocities ...
  3280 velocities

pair_style      eam/alloy
pair_coeff  	  * * Al_wkg_MSMSE_2009.set Al

#---------------------- DEFINE Laser GERION and GROUP ----------------
region       R1  block -11  11  INF  INF  INF  5  units box
group        G1 region R1
1804 atoms in group G1
group        G2 subtract all G1
1476 atoms in group G2


#define     temperature/pressure calculation  group
variable    x1atom atom "x>=0  &&  x<4 &&  z>-40 && z<1"     ##NEW!!!!!!!!!!!!
variable    x2atom atom "x>=-20.21  &&  x<-16.21 &&  z>-40 && z<1"
variable    x3atom atom "x>=0  &&  x<4 &&  z>-20 && z<1"
variable    x4atom atom "x>=-20.21  &&  x<-16.21 &&  z>-20 && z<1"
variable    x5atom atom "x>=196  &&  x<200 &&  z>-40 && z<1"

group       x1atom variable x1atom
142 atoms in group x1atom
group       x2atom variable x2atom
153 atoms in group x2atom
group       x3atom variable x3atom
79 atoms in group x3atom
group       x4atom variable x4atom
83 atoms in group x4atom
group       x5atom variable x5atom
0 atoms in group x5atom


compute      COM1x x1atom com
compute      COM2x x2atom com
compute      COM3x x3atom com
compute      COM4x x4atom com
compute      COM5x x5atom com

compute      COMall all com

#Temperature profile
#variable      Tprofile atom 300*(1+(step/5000)*2.5*exp(z/40))
variable      Tprofile atom 300*(1+(step/5000)*2.5*exp(z/75))

# ------------------------- SETTINGS ---------------------------------
thermo          100
thermo_style    custom step lx pxx pyy pzz temp c_COM1x[1] c_COM1x[2] c_COM1x[3] c_COM2x[1] c_COM2x[2] c_COM2x[3] c_COM3x[1] c_COM3x[2] c_COM3x[3] c_COM4x[1] c_COM4x[2] c_COM4x[3]  c_COM5x[1] c_COM5x[2] c_COM5x[3] c_COMall[1] c_COMall[2] c_COMall[3]

timestep       0.002


compute dispall all displace/atom
# ---------------- Run Laser Material Interaction --------------------
#dump          1 all custom 1000 dump/z1dump.atom id type x y z c_dispall[1]  c_dispall[2]  c_dispall[3] c_dispall[4]
#dump          2 all cfg 100 cfg/*.cfg mass type xs ys zs
#dump_modify   2 element Al

#relax for 2 PS
#fix           1 all nvt temp 300.0 300.0 0.1
#run  1000
#unfix         1

fix           1  all nve
fix           3temp  G1  langevin  v_Tprofile  0  0.1  378411   #TEST ALL
run           5000
Memory usage per processor = 0.146881 Mbytes
Step Lx Pxx Pyy Pzz Temp COM1x[1] COM1x[2] COM1x[3] COM2x[1] COM2x[2] COM2x[3] COM3x[1] COM3x[2] COM3x[3] COM4x[1] COM4x[2] COM4x[3] COM5x[1] COM5x[2] COM5x[3] COMall[1 COMall[2 COMall[3 
       0    40.414702    1597.6739    1265.5886    1478.2315    298.11549    1.9760959  -0.87904657   -18.681046   -18.152973   -1.1249992   -19.495897     2.247293  -0.84939683   -10.068876   -18.011362   -1.1595646   -10.333548            0            0            0   -1.0103676   -1.0103676   -40.206891 
     100    40.414702    1401.5385    1512.3326      1543.56    304.90942    1.9800737  -0.82448381    -18.70285   -18.154023   -1.1269009   -19.420352     2.249484  -0.84607363   -10.091959   -18.052678   -1.1488059   -10.228634            0            0            0   -1.0198329   -1.0128594   -40.211993 
     200    40.414702    1319.8625    1101.7006    1133.9927    306.53077    1.9497321  -0.86363906   -18.649919   -18.173459   -1.1288518   -19.436135    2.2116933  -0.88472658   -10.050778   -18.047448   -1.1115924   -10.226264            0            0            0   -1.0252706   -1.0192798   -40.212774 
     300    40.414702    1345.7737    1245.7605    794.15944    312.98027    1.9570389  -0.87070259   -18.623478   -18.171679   -1.0910472   -19.449043    2.2315074  -0.87172777   -10.038705   -18.022537   -1.0907077   -10.195304            0            0            0   -1.0148828   -1.0293219   -40.214516 
     400    40.414702    990.04149    1063.7526    431.37025     316.8588    1.9466135  -0.91542742   -18.600471   -18.148807   -1.1082701   -19.415917    2.2343382  -0.95688055   -9.9885575   -18.044184   -1.1296704    -10.15924            0            0            0   -1.0134851   -1.0461667   -40.223292 
     500    40.414702     1104.845    1365.1465    37.297842    323.87897    1.9368385   -0.9265139   -18.613494    -18.18184    -1.157226    -19.44915    2.2144052  -0.93663753    -9.980004   -18.049156   -1.1912168   -10.201121            0            0            0   -1.0181408   -1.0496675   -40.242911 
     600    40.414702    1489.2523    1399.5731    626.44426    330.46161    1.9659297  -0.89342182   -18.597555   -18.178336    -1.134318   -19.465861    2.2565713  -0.88836772   -9.9452298   -18.047496   -1.1861535   -10.285639            0            0            0   -1.0261252   -1.0496412   -40.247841 
     700    40.414702    1797.3339    1932.6173    773.27946    340.06784    1.9548771   -0.9221104   -18.594941   -18.166765   -1.1086831    -19.47888    2.2320395   -0.9045731    -9.949475   -18.030586   -1.1594827   -10.315342            0            0            0    -1.022653   -1.0471305    -40.25236 
     800    40.414702    1942.5816    1868.9141     884.8733    351.45632    1.9529604  -0.94329669   -18.631819   -18.124859   -1.1024952   -19.449061    2.2588423  -0.90696141   -9.9918346   -17.970572   -1.1227805   -10.183302            0            0            0   -1.0178591   -1.0404947   -40.260863 
     900    40.414702     2043.026    1736.7765    538.72254    356.97158    1.9715038  -0.93770385   -18.623388   -18.136975   -1.0405054   -19.422622    2.3175893  -0.90362449   -9.9855872   -17.974899   -1.0252491   -10.132147            0            0            0   -1.0220303    -1.030311   -40.262534 
    1000    40.414702     1835.777    1656.5678    470.49068    368.98151    1.9804928  -0.91416991   -18.610383   -18.160207   -1.0597518    -19.42658    2.3129737  -0.84910715   -9.9696217   -18.005106   -1.0101687   -10.187556            0            0            0   -1.0334975   -1.0188478   -40.270181 
    1100    40.414702     2308.687    1892.6746    658.24502    381.63972    1.9596321  -0.89719219   -18.552074   -18.141688   -1.0547327   -19.428449    2.2663503  -0.82950852   -9.8656805   -17.985628   -1.0110295   -10.203782            0            0            0    -1.052378    -1.020333   -40.267313 
    1200    40.414702    1911.0964    1927.6771   -27.598656    387.22048    1.9254351  -0.86905392   -18.531458    -18.17682   -1.1374761   -19.431615    2.1915262  -0.79973762   -9.8502432     -18.0784   -1.1190534   -10.195697            0            0            0   -1.0561156    -1.018923   -40.278182 
    1300    40.414702    2238.4283    2296.2943    258.38248    388.53386    1.9571879  -0.84321921   -18.522724   -18.183419   -1.1577972   -19.439929    2.2538879  -0.80357784   -9.8868535   -18.060118   -1.1901625   -10.191832            0            0            0   -1.0493466   -1.0170652   -40.291192 
    1400    40.414702    2974.8568    2998.4896    859.32337    401.53533    1.9708059  -0.90228202   -18.594437    -18.18237   -1.0945141   -19.470551    2.2645939  -0.83508981   -9.9429537   -18.023476    -1.123142   -10.182665            0            0            0   -1.0395061   -1.0173744   -40.293183 
    1500    40.414702    2989.5339    3141.7378    1395.2787    409.63262    1.9631202  -0.97923705   -18.585068   -18.111921   -1.0882705   -19.482241    2.3016037  -0.98303519   -9.9106438   -17.942628   -1.1200344    -10.22309            0            0            0   -1.0303159   -1.0254938   -40.300131 
    1600    40.414702    2854.9738    2904.0352    1105.6379    421.55224    1.9979173  -0.97192211   -18.558415   -18.121704   -1.0430992   -19.418116    2.3388728  -0.95834323   -9.8997421   -17.910105   -1.1166875    -10.14833            0            0            0    -1.031555   -1.0293133   -40.296575 
    1700    40.414702    3351.9628    3289.7651    1070.7357    431.57723    1.9478471   -1.0059422   -18.547295   -18.175694   -1.1258681   -19.393259    2.2832598   -1.0460379   -9.8536325   -18.012172   -1.1573134   -10.134413            0            0            0   -1.0467857   -1.0406785   -40.288427 
    1800    40.414702    3091.2664    3499.7244    1041.7996    433.78343    1.9714042  -0.93943684   -18.535824   -18.195755   -1.1752657   -19.356441    2.3113848  -0.94566939   -9.8202983   -18.022843   -1.2503766   -10.064605            0            0            0   -1.0501648   -1.0503327   -40.288069 
    1900    40.414702    2927.5593    3193.9192    367.27918    438.77113    1.9418932  -0.99102041   -18.571653   -18.171238   -1.1712504   -19.394586    2.2574232  -0.97863888   -9.8785932   -18.009293   -1.1933763   -10.109578            0            0            0   -1.0552312   -1.0609216   -40.293344 
    2000    40.414702    3345.5451    3310.7484    966.05788    457.96357    1.9322827    -1.021451   -18.547389   -18.161438   -1.1725031   -19.362186    2.2718714   -1.0079816   -9.8372722   -18.015195   -1.1840153   -10.052714            0            0            0   -1.0571296   -1.0567433   -40.308844 
    2100    40.414702    4393.5911    3876.1072    1554.0917    456.01642    1.9621419   -1.0116274   -18.543986   -18.200713   -1.1041133   -19.367806    2.3123894   -1.0405273   -9.7857882   -18.096445   -1.0912416   -10.084353            0            0            0    -1.061293    -1.043679   -40.309037 
    2200    40.414702    4138.9853    4054.3389    1585.8191    476.32541    1.9575449   -0.9966216   -18.538787   -18.182136   -1.1033047   -19.446697     2.303171   -1.0085661   -9.8300048   -18.005315   -1.0647483   -10.177181            0            0            0   -1.0709968   -1.0343995   -40.321446 
    2300    40.414702    4558.7165     4252.647    1798.9746    483.74302    1.9222465   -1.0357191   -18.527988   -18.219273   -1.1533028   -19.445402    2.2539972   -1.0159982   -9.7898631   -18.052495   -1.1734239   -10.116891            0            0            0   -1.0660341   -1.0393681   -40.329348 
    2400    40.414702    4071.4962     3933.156    1122.0908    498.09143    1.9244157  -0.99640295   -18.507183   -18.201305   -1.1800491   -19.402178    2.2843731  -0.94967627   -9.7657479   -18.028548   -1.2716246   -9.9897183            0            0            0   -1.0490464   -1.0622973   -40.313871 
    2500    40.414702    4246.1201    4203.7743    1320.6755    495.44765    1.9359531   -1.0181812   -18.541929   -18.135846   -1.2391178   -19.301368    2.2426974   -1.0174138   -9.7990696   -17.958702   -1.3072373   -9.9672551            0            0            0   -1.0390261   -1.0786413   -40.304225 
    2600    40.414702    4872.4733    4843.6004    1474.1109    501.01909    1.9353672   -1.0811188   -18.522403   -18.154992   -1.2943699   -19.276602    2.2554578   -1.0713194   -9.7961922    -18.00303   -1.3121251   -10.003797            0            0            0   -1.0403831   -1.0986876   -40.286174 
    2700    40.414702     4683.742    4813.7737    1002.9166    519.09707    1.9758408   -1.1113641   -18.476625   -18.179621   -1.2648025   -19.256459    2.3056825    -1.114454   -9.7616983   -18.046838   -1.2735894     -9.97257            0            0            0   -1.0516342    -1.114613     -40.2773 
    2800    40.414702    5242.4955      5035.92    1764.0424    534.26921    1.9494845   -1.1247729   -18.465528   -18.164338   -1.2426348   -19.264027    2.2707621    -1.173243   -9.7083135   -18.037731   -1.1969761   -9.9085953            0            0            0   -1.0536758   -1.1293246   -40.283416 
    2900    40.414702    4652.3895    4627.8765    660.34678    538.92602     1.955438   -1.1900944   -18.450816   -18.125621   -1.2294787   -19.265601    2.2544323   -1.2142831   -9.6823198   -17.991493   -1.2405953   -9.8537969            0            0            0   -1.0497576   -1.1338081   -40.298117 
    3000    40.414702    5563.5556    5539.8671     1936.018    542.00438    1.9822943   -1.1484764    -18.47259   -18.141688   -1.2326232   -19.294157    2.2972646   -1.1363566   -9.7466127   -18.032738   -1.2476944   -9.8788784            0            0            0   -1.0543907   -1.1291818    -40.30451 
    3100    40.414702    5298.4195    5415.7395    1973.8616    546.32542     1.968517   -1.1528969   -18.537491    -18.18069   -1.2946076   -19.321553    2.3152528   -1.1357454   -9.8540326   -18.025025   -1.3723463   -9.8774556            0            0            0   -1.0687982   -1.1485408   -40.321269 
    3200    40.414702    5687.4947    5411.0108    2236.9565     557.1746    1.9944852   -1.1206278   -18.498709   -18.178724   -1.3544422   -19.384961    2.3409638   -1.0979196   -9.7328399   -18.004408   -1.4860786    -10.02789            0            0            0   -1.0581389   -1.1545965    -40.33102 
    3300    40.414702    6593.6172     6422.188    3107.9355    562.30565    1.9759628   -1.1316504   -18.448798   -18.142903   -1.4337131    -19.39062     2.293038   -1.1341062   -9.6972885   -17.932316   -1.5330985   -10.039286            0            0            0    -1.041119   -1.1729014   -40.336281 
    3400    40.414702    6435.4261    6572.1124    2930.9127    583.46568    2.0013624   -1.1330979   -18.440713   -18.077807   -1.4667372    -19.32775    2.3105498   -1.1886597   -9.7036726   -17.854298   -1.4937952   -9.9667982            0            0            0   -1.0256939   -1.1843484   -40.333294 
    3500    40.414702    6077.9319    6116.6359    2550.4263    577.49082    2.0216116   -1.0950621   -18.395841    -18.07322   -1.5084409   -19.331907    2.3321372   -1.1410289   -9.5663689   -17.885917   -1.5499602   -9.9427815            0            0            0   -1.0175919   -1.1749906   -40.327063 
    3600    40.414702    6543.4915    6350.1379     2853.787    596.87944    1.9550135   -1.1440448   -18.427678   -18.100135   -1.4037372   -19.313874    2.2759356   -1.1910988   -9.6154072   -17.950486    -1.436676   -9.9884745            0            0            0   -1.0262329   -1.1592719   -40.328607 
    3700    40.414702    7257.9893     6870.433    2885.4279     601.2712    1.9848724   -1.1567351    -18.44693   -18.147089   -1.2867763   -19.298688     2.295999   -1.1612629   -9.6304687   -17.968156   -1.3780343   -10.007094            0            0            0   -1.0630628   -1.1135541   -40.335861 
    3800    40.414702    6620.1164    6694.2765    2534.7721    621.64116    1.9890259   -1.1453782    -18.41241    -18.20291   -1.1792151   -19.291816    2.2583422   -1.1943257   -9.5840396   -18.064517   -1.2303082   -9.9018068            0            0            0   -1.0769935   -1.0700502   -40.330485 
    3900    40.414702    6640.3322    6157.0534     2423.457    618.56462    1.9322169   -1.1301808    -18.41308    -18.14308   -1.2105836   -19.266177    2.2331788   -1.2130363   -9.5707812   -18.001171    -1.265349    -9.811907            0            0            0   -1.0766946   -1.0460647   -40.343063 
    4000    40.414702    6442.9173    6618.1483    2449.6428    630.88493    1.9616686   -1.0476617    -18.40449   -18.161753   -1.1494529   -19.219096    2.2520363   -1.0917838   -9.5644893   -17.995478    -1.224777   -9.7718419            0            0            0   -1.0694199   -1.0304763   -40.350882 
    4100    40.414702    6889.7451    6879.0954     2556.894      632.565     1.982978   -1.0362787   -18.374953   -18.192911     -1.19674   -19.211729    2.2297671   -1.0796545   -9.4938574   -18.059928   -1.2727726   -9.7286867            0            0            0   -1.0757717   -1.0304717   -40.361301 
    4200    40.414702    7499.6763    7471.6917    2340.5466    633.57772    1.9900912   -1.0549334   -18.401285   -18.130345    -1.307345   -19.147506     2.252725   -1.1536634   -9.5456754   -17.972945   -1.3891367    -9.712374            0            0            0   -1.0859893   -1.0528294   -40.367387 
    4300    40.414702     7574.138    7215.3121    2618.1858    668.81121    1.9870651   -1.1179888   -18.428595   -18.152382   -1.2964121   -19.196319    2.3007561   -1.2081955   -9.6108421   -17.977673   -1.3877341   -9.7696316            0            0            0    -1.098305   -1.0742795   -40.377804 
    4400    40.414702     6843.098    7103.2749    1698.6788    674.10038    1.9734193   -1.1481225   -18.442882   -18.105755   -1.2670664   -19.275588    2.2662645   -1.2011147   -9.6114154   -17.996129   -1.3455382   -9.7922273            0            0            0   -1.1013789   -1.0778087   -40.394188 
    4500    40.414702    7852.8629    7645.0064    2934.9356     664.8899    1.9374819    -1.176319   -18.421973   -18.157685   -1.2735212   -19.254919    2.2551365   -1.2263433   -9.5680724   -18.053364   -1.3207479   -9.7264173            0            0            0   -1.1046751   -1.0786708   -40.407517 
    4600    40.414702    8096.8458    7651.8474    2867.0997    674.49695    1.9453636   -1.1387242   -18.383447   -18.177171   -1.1707451   -19.230751    2.2906541   -1.2200669    -9.527995   -18.101722   -1.1855459   -9.7522503            0            0            0   -1.1169201   -1.0808823   -40.422191 
    4700    40.414702    7572.5708    7731.9372    2881.3256    685.96831    1.9096997   -1.1132073   -18.344423      -18.221   -1.2236957   -19.220753     2.239397   -1.1916879   -9.4576079   -18.033913    -1.270444   -9.7270403            0            0            0    -1.151648   -1.0818576   -40.440188 
    4800    40.414702    7965.7081    7548.0367    2113.2702    714.80464    1.8441713   -1.0543698   -18.350093   -18.262063   -1.2709152   -19.244166    2.1375138   -1.1136272    -9.500894   -18.051806   -1.2985014   -9.8502097            0            0            0   -1.1846951   -1.0898107   -40.454917 
    4900    40.414702    7480.4451    6802.0796    1601.9131    708.88375    1.8096588   -1.0569486   -18.360643   -18.349564   -1.2847568   -19.203372    2.1680259   -1.0675581   -9.5129162   -18.155832   -1.3017121   -9.7470767            0            0            0   -1.2251448   -1.0926661   -40.475084 
    5000    40.414702    8073.0661    7562.1369    2076.1323    723.42644    1.7844479   -1.0668794   -18.352346   -18.444958   -1.2813646   -19.181545    2.1879699   -1.0777492    -9.461015   -18.288748   -1.2698555   -9.6557114            0            0            0   -1.2660331   -1.1014806   -40.484994 
Loop time of 16.341 on 8 procs for 5000 steps with 3280 atoms

Pair  time (%) = 11.2298 (68.7214)
Neigh time (%) = 0.128442 (0.78601)
Comm  time (%) = 4.37594 (26.7789)
Outpt time (%) = 0.00690192 (0.0422368)
Other time (%) = 0.599952 (3.67145)

Nlocal:    410 ave 685 max 0 min
Histogram: 2 0 0 0 2 0 0 0 0 4
Nghost:    1930.5 ave 3215 max 470 min
Histogram: 2 0 0 2 0 0 0 2 0 2
Neighs:    28186 ave 49529 max 0 min
Histogram: 2 0 0 2 0 0 0 0 0 4

Total # of neighbors = 225488
Ave neighs/atom = 68.7463
Neighbor list builds = 78
Dangerous builds = 0


variable  com1_x equal "c_COM1x[1]"
variable  com1_y equal "c_COM1x[2]"
variable  com1_z equal "c_COM1x[3]"
variable  com2_x equal "c_COM2x[1]"
variable  com2_y equal "c_COM2x[2]"
variable  com2_z equal "c_COM2x[3]"
variable  com3_x equal "c_COM3x[1]"
variable  com3_y equal "c_COM3x[2]"
variable  com3_z equal "c_COM3x[3]"
variable  com4_x equal "c_COM4x[1]"
variable  com4_y equal "c_COM4x[2]"
variable  com4_z equal "c_COM4x[3]"
variable  com5_x equal "c_COM5x[1]"
variable  com5_y equal "c_COM5x[2]"
variable  com5_z equal "c_COM5x[3]"
variable  comall_x equal "c_COMall[1]"
variable  comall_y equal "c_COMall[2]"
variable  comall_z equal "c_COMall[3]"


fix          2 all print 100 "${com1_x}   ${com1_y}   ${com1_z}  ${com2_x}   ${com2_y}   ${com2_z} ${com3_x}   ${com3_y}   ${com3_z} ${com4_x}   ${com4_y}   ${com4_z} ${com5_x}   ${com5_y}   ${com5_z} ${comall_x}   ${comall_y}   ${comall_z}" file COM.data screen no
#-------------------------- Wave Propagation -------------------------
unfix        3temp
run          1000000
Memory usage per processor = 2.52112 Mbytes
Step Lx Pxx Pyy Pzz Temp COM1x[1] COM1x[2] COM1x[3] COM2x[1] COM2x[2] COM2x[3] COM3x[1] COM3x[2] COM3x[3] COM4x[1] COM4x[2] COM4x[3] COM5x[1] COM5x[2] COM5x[3] COMall[1 COMall[2 COMall[3 
    5000    40.414702    8073.0661    7562.1369    2076.1323    723.42644    1.7844479   -1.0668794   -18.352346   -18.444958   -1.2813646   -19.181545    2.1879699   -1.0777492    -9.461015   -18.288748   -1.2698555   -9.6557114            0            0            0   -1.2660331   -1.1014806   -40.484994 
    5100    40.414702    7461.1414    7596.6974    1571.6382    715.95768    1.7118027   -1.0866092   -18.312401   -18.447232   -1.2708031   -19.214267    2.1141561   -1.1302746   -9.3763881   -18.289062   -1.3122262   -9.6508599            0            0            0    -1.300203    -1.108333    -40.48685 
    5200    40.414702    7028.3576    6830.2585    174.47386    721.20295    1.6902993   -1.1454094   -18.259367    -18.42372   -1.3008491   -19.183227    2.0823583    -1.187989   -9.2996476   -18.185272   -1.3043873   -9.5799618            0            0            0    -1.334373   -1.1151854   -40.488707 
    5300    40.414702    6220.7913    5695.2174   -949.03437    711.65002    1.7377663   -1.1457851   -18.174168   -18.462682   -1.2559019   -19.112977    2.1192141   -1.2435674   -9.1499125   -18.245245   -1.3026247   -9.4848134            0            0            0   -1.3685429   -1.1220378   -40.490563 
    5400    40.414702    5263.0038    5576.7192   -867.73672    710.14023    1.6557185   -1.1021762   -18.122317   -18.482349   -1.2913419   -19.079947    1.9856268   -1.1853779   -9.0703242   -18.280937   -1.3991742   -9.5206673            0            0            0   -1.4027128   -1.1288902    -40.49242 
    5500    40.414702    5596.9193    5144.9349   -2027.8667    711.25455     1.630591   -1.0585522    -18.11368   -18.415238   -1.3178382   -19.068182    1.9650676   -1.0950003   -9.1133965   -18.238154   -1.4890593   -9.4973059            0            0            0   -1.4368828   -1.1357426   -40.494276 
    5600    40.414702     5994.848    5631.8874   -1607.5708    705.50685    1.6356338   -1.0607676   -18.117366    -18.47963      -1.2892   -19.029637    1.8980628   -1.0379695   -9.1003741   -18.327564   -1.4296834   -9.4888055            0            0            0   -1.4710527    -1.142595   -40.496133 
    5700    40.414702    5090.9998     5040.639   -2136.3041    708.06421    1.5779561   -1.1654844   -18.094035   -18.546021   -1.2908256   -19.031596    1.8894874   -1.1584772   -9.1138679   -18.398579   -1.3631357   -9.4515784            0            0            0   -1.5052227   -1.1494474   -40.497989 
    5800    40.414702    5228.9964    5802.8208   -1512.3398    698.85024      1.51685   -1.1097025    -18.15779    -18.49642   -1.2390808   -19.028187    1.7962771    -1.186022   -9.2225456   -18.355272   -1.2309959   -9.3805674            0            0            0   -1.5393926   -1.1562998   -40.499845 
    5900    40.414702    5737.6824    5445.0451   -1158.0021    707.70905     1.503899   -1.0476209   -18.222665   -18.604692   -1.2111296   -19.088615    1.7962804   -1.1285337   -9.2178733   -18.399193   -1.1866437   -9.4392213            0            0            0   -1.5735625   -1.1631522   -40.501702 
    6000    40.414702     6305.393    6473.5671   -711.10633     721.0176     1.499358   -1.0898891   -18.241643   -18.635943   -1.2708422   -19.070135    1.8638255   -1.1174496   -9.2801598   -18.423445   -1.3154112   -9.5361477            0            0            0   -1.6077325   -1.1700046   -40.503558 
    6100    40.414702    7182.9498    7220.6354    1573.8014    714.79097    1.3654627   -1.0216353   -18.342322   -18.693824   -1.2229954   -19.106451    1.7137256   -1.0037732   -9.4181361   -18.546217   -1.3822226   -9.5749544            0            0            0   -1.6419024    -1.176857   -40.505415 
    6200    40.414702    7294.4339    7876.5893     1984.326    723.61592    1.3793787  -0.95769912   -18.321258   -18.779015   -1.2250289   -19.150605    1.7455074  -0.89412401   -9.3305811    -18.60757   -1.2894811    -9.662921            0            0            0   -1.6760723   -1.1837094   -40.507271 
    6300    40.414702    6788.8881    7403.6655     1839.143    721.55757    1.3794699   -1.0274776   -18.352993   -18.787744   -1.2383438   -19.307258    1.7262155  -0.99279267   -9.4141758   -18.580712   -1.1873271   -9.8522158            0            0            0   -1.7102423   -1.1905618   -40.509128 
    6400    40.414702    7403.0701    7169.3728    1726.4012    721.67489    1.2851257   -1.0417444   -18.372722   -18.806739   -1.2703624   -19.317813    1.6131561   -1.0614091    -9.441079   -18.595892   -1.1742566   -9.8215617            0            0            0   -1.7444122   -1.1974142   -40.510984 
    6500    40.414702    8055.1183    8308.3608    1992.6314    712.71334    1.2287691  -0.99517886   -18.320645   -18.870687    -1.118195   -19.265323    1.5945616  -0.93674754   -9.4174949   -18.684907    -1.018353   -9.7865287            0            0            0   -1.7785822   -1.2042666    -40.51284 
    6600    40.414702    8082.5525     7762.287    1907.9518    711.55795    1.1947191   -1.0425263   -18.270343    -18.93497   -1.2040081   -19.245331    1.5318749  -0.93881244    -9.360637   -18.790282   -1.1222591   -9.7309279            0            0            0   -1.8127521    -1.211119   -40.514697 
    6700    40.414702    6658.9066    6735.9517    405.30908    723.10122    1.1509095   -1.0479993   -18.331623   -18.912991   -1.2025526   -19.184189    1.4975364  -0.94154157   -9.3935747   -18.767226   -1.1266547   -9.5879248            0            0            0    -1.846922   -1.2179714   -40.516553 
    6800    40.414702    6506.0815    6695.0572   -311.82178    708.03822    1.0893114  -0.90102594   -18.310118   -19.009198   -1.2413428   -19.158968    1.3942409  -0.75803559   -9.3603627   -18.846757   -1.1496249   -9.5496597            0            0            0    -1.881092   -1.2248238    -40.51841 
    6900    40.414702    4836.0485    5154.0096   -2052.9898     738.3358    1.1309915   -0.9750239   -18.244983   -19.087599   -1.2570329   -19.060531    1.4303922  -0.83846575   -9.3252565   -18.901465    -1.178424   -9.4801857            0            0            0   -1.9152619   -1.2316762   -40.520266 
    7000    40.414702    5441.2029    5954.0052   -1200.9176    704.69402   0.98873056   -0.9631194   -18.181956   -19.100235   -1.2728611   -18.999547    1.2634844  -0.83938361   -9.2034408   -18.911195   -1.2491537   -9.4277847            0            0            0   -1.9494319   -1.2385286   -40.522123 
    7100    40.414702    5454.6326    5027.7668   -1591.7528    706.91483    0.9241919  -0.97104296   -18.150217   -19.154129   -1.2408191   -19.021973    1.2420997   -0.9017194   -9.1092429   -19.040125   -1.1936061   -9.3981529            0            0            0   -1.9836018    -1.245381   -40.523979 
    7200    40.414702    5277.3401    4823.7341      -2644.9    709.21152   0.97731718  -0.99804652   -18.249504   -19.255326   -1.1500165   -19.065424    1.3409619   -1.0170797   -9.2906091   -19.160845   -1.1522043   -9.4827064            0            0            0   -2.0177717   -1.2522334   -40.525836 
    7300    40.414702    5544.6407    5512.9463   -1839.3352    710.52247   0.88022934   -1.0984454   -18.204184    -19.26967   -1.1646597   -19.057467    1.2011677   -1.1247341   -9.2710376   -19.114008   -1.1903377   -9.4682998            0            0            0   -2.0519417   -1.2590858   -40.527692 
    7400    40.414702    6276.0653    6148.9313   -545.85947    710.47885   0.77946447   -1.1055242   -18.176482   -19.215941    -1.216509   -19.116582    1.0620196   -1.0445162   -9.1941265   -19.096461   -1.2307714   -9.5257054            0            0            0   -2.0861116   -1.2659382   -40.529548 
    7500    40.414702    6509.2627    6380.6639   -703.40917    714.41991   0.85135753   -1.0261081   -18.274743   -19.333687   -1.2871358   -19.109579    1.0891577  -0.95908171   -9.2606342   -19.175553    -1.350143   -9.4803665            0            0            0   -2.1202816   -1.2727906   -40.531405 
    7600    40.414702    7321.3021    7053.7697    370.64903    722.23403   0.83527817    -0.969797   -18.278005   -19.358382   -1.3388698   -19.175564    1.0677543  -0.94258484   -9.3169951   -19.236993    -1.368646   -9.5671079            0            0            0   -2.1544515    -1.279643   -40.533261 
    7700    40.414702    8183.7063    7249.2445    1188.5614    724.84592   0.74343082   -1.0337677   -18.371259   -19.272786    -1.417998    -19.21134   0.97601199   -1.0377375   -9.5160667   -19.206612   -1.4069533   -9.6850866            0            0            0   -2.1886214   -1.2864954   -40.535118 
    7800    40.414702    7903.2292    7499.3116    2083.8317    731.99549   0.73996952     -1.13761   -18.418854   -19.356178   -1.3784223   -19.239429   0.96811811   -1.1923279   -9.5326438   -19.288358   -1.4361735   -9.7855075            0            0            0   -2.2227914   -1.2933477   -40.536974 
    7900    40.414702    8200.4014    7532.8304    1800.0523     722.3157   0.74193344   -1.2413112   -18.401072   -19.419711   -1.3366453    -19.22757   0.98517852   -1.3317067   -9.4969387   -19.357394   -1.4378934   -9.7251246            0            0            0   -2.2569613   -1.3002001   -40.538831 
    8000    40.414702    7981.2435    7592.6345    1914.9345    721.35009   0.65608274   -1.2982096   -18.414616   -19.423351   -1.3613743   -19.236318   0.94549384   -1.2923432   -9.4487843   -19.281299   -1.4152436   -9.7004033            0            0            0   -2.2911312   -1.3070525   -40.540687 
    8100    40.414702    7393.5968    8015.2719    1730.1892    721.78605   0.69080419   -1.2823429   -18.313479   -19.466543   -1.3952328   -19.252482    1.0225837   -1.2302318   -9.3782761   -19.298364   -1.4527046   -9.7465078            0            0            0   -2.3253012   -1.3139049   -40.542543 
    8200    40.414702    7350.4191    7327.5143    733.03811    714.67173   0.61242615    -1.251009   -18.355499   -19.512102   -1.5258432   -19.239663   0.95429837   -1.1918596   -9.4559789   -19.317326   -1.5368093   -9.7299091            0            0            0   -2.3594711   -1.3207573     -40.5444 
    8300    40.414702    6562.9581    6128.1933   -654.04204    719.49838   0.53982521   -1.2812335    -18.32037   -19.478345   -1.5794345   -19.156745   0.92619292   -1.2668822   -9.3494768   -19.338904   -1.5754313   -9.6049775            0            0            0   -2.3936411   -1.3276097   -40.546256 
    8400    40.414702    6100.8774    6061.0684   -1683.7109    707.59766   0.58940247   -1.2642591   -18.264872   -19.540745   -1.6279254   -19.118749    0.9677406   -1.2888144   -9.2817697   -19.345317    -1.656828   -9.5177379            0            0            0    -2.427811   -1.3344621   -40.548113 
    8500    40.414702     5244.089    5659.5927   -1465.1442    722.58699   0.55418766   -1.3282057   -18.273316   -19.600948   -1.5459795   -19.051865   0.92389449   -1.3326999   -9.2623396   -19.365955    -1.610935   -9.4992116            0            0            0   -2.4619809   -1.3413145   -40.549969 
    8600    40.414702    5554.0162    5153.3028   -1664.9155    710.94126    0.5210493   -1.4444923   -18.257602   -19.594456   -1.5324971   -19.061602   0.90419831   -1.4348475   -9.3463145   -19.356622   -1.5858818   -9.5033505            0            0            0   -2.4961509   -1.3481669   -40.551826 
    8700    40.414702    5485.8198    4845.3708   -1961.4239    723.00604    0.4632786   -1.4918016   -18.164743   -19.566614   -1.4929858   -19.096997   0.81866121   -1.5087053   -9.2226472   -19.308166   -1.5935626   -9.5570263            0            0            0   -2.5303208   -1.3550193   -40.553682 
    8800    40.414702    6641.2911    6469.6871   -419.85166    692.52068   0.49742965   -1.3916489   -18.225835   -19.674987   -1.5369017   -19.158326   0.86529475   -1.4046993   -9.2176784   -19.533745    -1.549652   -9.5874123            0            0            0   -2.5644908   -1.3618717   -40.555538 
    8900    40.414702     5646.792      5158.72   -1552.8716    724.80855   0.48276983   -1.3766917   -18.184503   -19.606526   -1.5822434   -19.157855   0.81012913   -1.3829911   -9.2401354   -19.509866   -1.5677933   -9.5515167            0            0            0   -2.5986607   -1.3687241   -40.557395 
    9000    40.414702     5845.194    6556.2285   -932.56159    728.62388   0.41014384   -1.3493587   -18.241686   -19.700139   -1.6305083   -19.175851   0.69432312   -1.4755977   -9.2342846   -19.516269   -1.7291644   -9.6524089            0            0            0   -2.6328306   -1.3755765   -40.559251 
    9100    40.414702    6986.3584    7492.0807    680.58699    714.00061   0.42400775   -1.3121196   -18.338022   -19.745344   -1.6283385   -19.181927   0.71938757   -1.3836061   -9.3984155   -19.564719   -1.7762874   -9.6247936            0            0            0   -2.6670006   -1.3824289   -40.561108 
    9200    40.414702    7126.1147    7225.3949    1073.4617    718.00831   0.36560791   -1.3324905   -18.401257    -19.77478   -1.5625764   -19.219239   0.65424271   -1.3878889    -9.456282   -19.622197   -1.6915601   -9.7081408            0            0            0   -2.7011705   -1.3892813   -40.562964 
    9300    40.414702    7560.6507     7162.658    760.29616    721.21476   0.27604214   -1.3647034   -18.421318   -19.791905   -1.4939352   -19.258328    0.5433306   -1.4359418   -9.5070786   -19.660106   -1.6454423   -9.7540056            0            0            0   -2.7353405   -1.3961337   -40.564821 
    9400    40.414702     8133.621    7863.4606    1988.9446    721.47175   0.27341516   -1.3889551   -18.448911   -19.824088   -1.4920285   -19.285195   0.58630896   -1.4251331   -9.5956819   -19.782534   -1.5226668   -9.7765368            0            0            0   -2.7695104   -1.4029861   -40.566677 
    9500    40.414702    7366.9981    7403.7428    1170.2545    736.08174   0.22729325   -1.3084375   -18.430726   -19.922241   -1.5109854   -19.350578   0.49345786   -1.3351473   -9.5731261   -19.818244   -1.5019752   -9.9117407            0            0            0   -2.8036803   -1.4098385   -40.568534 
    9600    40.414702    7799.7327    7880.8228    1545.7615    708.57209   0.17179603   -1.2562298   -18.370105   -19.927782   -1.4662949   -19.282246   0.47786696   -1.3146958   -9.4697311   -19.823385   -1.4385965   -9.7648183            0            0            0   -2.8378503   -1.4166909    -40.57039 
    9700    40.414702    7253.6343    7666.6531    1056.5697     716.5783   0.16977124   -1.1851836   -18.329576   -19.985949   -1.5172181   -19.263497   0.48492932   -1.1336057   -9.4171798   -19.813794   -1.5077714   -9.7925356            0            0            0   -2.8720202   -1.4235433   -40.572246 
    9800    40.414702    6692.1834    6760.1716    167.54497    717.08985   0.10387468   -1.1889744   -18.275547   -20.007052   -1.4324415    -19.20904   0.47271831   -1.0925301   -9.2872252   -19.779632   -1.4242711   -9.6926106            0            0            0   -2.9061901   -1.4303957   -40.574103 
    9900    40.414702    5911.7597    6172.4915   -271.10162    721.84602  0.065368614   -1.2417884   -18.410685   -20.002576   -1.4043446   -19.190808   0.43132727   -1.1401986   -9.4411612   -19.815982   -1.3677566   -9.6526315            0            0            0   -2.9403601   -1.4372481   -40.575959 
   10000    40.414702    5946.6594    5824.1178   -659.14788    715.30598  0.056267495   -1.2222328   -18.314707   -20.105281   -1.3561218   -19.106375   0.45219255   -1.1217595   -9.3392932   -19.922358    -1.258328    -9.537416            0            0            0     -2.97453   -1.4441005   -40.577816 
   10100    40.414702     5425.844    5596.1634   -1728.3588    718.07818 0.00084169163   -1.1796296   -18.270296   -20.125744   -1.3358426   -19.068787   0.35158227   -1.0745288   -9.3495273   -19.981449   -1.2039073   -9.5137093            0            0            0      -3.0087   -1.4509529   -40.579672 
   10200    40.414702    5229.0631    5557.7852   -2041.5202    714.54357   -0.0364279   -1.1427798    -18.29557   -20.140013   -1.3994595   -19.070261   0.25351631    -1.043377   -9.3460164   -20.006075    -1.293401   -9.4322909            0            0            0   -3.0428699   -1.4578053   -40.581529 
   10300    40.414702     6092.322    5679.0402   -1360.6911    714.92551  -0.10068552   -1.1765405   -18.265622   -20.215841    -1.421015   -19.094794   0.20518205   -1.0385109   -9.3466792   -20.053879    -1.379355   -9.5466449            0            0            0   -3.0770398   -1.4646577   -40.583385 
   10400    40.414702    5437.3489    5694.2157    -1170.256    720.87329  -0.17981739   -1.0995126   -18.289137   -20.260387   -1.4628009    -19.10905   0.12638711  -0.95101352   -9.3568628   -20.059582   -1.4288525   -9.6313281            0            0            0   -3.1112098   -1.4715101   -40.585241 
   10500    40.414702    5925.9361    6010.6374   -1176.3452    726.48953  -0.18068264   -1.1293477   -18.263655   -20.325036   -1.4062406   -19.179415   0.15066678   -1.0271241   -9.2881206   -20.144958   -1.3153108   -9.6868531            0            0            0   -3.1453797   -1.4783625   -40.587098 
   10600    40.414702    6595.4955    6271.8373   -190.41244    719.26495  -0.22379524   -1.1483401    -18.25877   -20.377883   -1.4422135   -19.248243    0.1211261   -1.0717766   -9.2144734    -20.24742   -1.3668273   -9.6922731            0            0            0   -3.1795497   -1.4852149   -40.588954 
   10700    40.414702     7046.922    6705.5125    349.85732    719.65237  -0.30507491   -1.2795624   -18.297677   -20.351349   -1.3771277   -19.270431  -0.04004572   -1.2492859   -9.3651044   -20.278883    -1.292543   -9.7462762            0            0            0   -3.2137196   -1.4920673   -40.590811 
   10800    40.414702    7746.3789    7333.4456    1436.9019    718.04317  -0.32514075   -1.2887356   -18.379817   -20.360623    -1.386309   -19.309776  -0.11119573   -1.2178418   -9.5425583   -20.264736   -1.3417304   -9.7740677            0            0            0   -3.2478895   -1.4989197   -40.592667 
   10900    40.414702    6981.3207    7394.2211    946.21195    736.10633  -0.33847282   -1.2526351   -18.431518   -20.471763   -1.4011829   -19.240647  -0.15071959    -1.222957   -9.5208546    -20.39288   -1.3849679   -9.7546709            0            0            0   -3.2820595   -1.5057721   -40.594524 
   11000    40.414702    7928.6328     7159.155    1393.3018    722.28089    -0.353704   -1.2585985   -18.455087    -20.47698   -1.4922009   -19.295882 -0.099510466   -1.2689233   -9.5897973   -20.436401   -1.5444969   -9.8007322            0            0            0   -3.3162294   -1.5126245    -40.59638 
   11100    40.414702    7366.3813    6795.5821    1327.6767    724.38302  -0.38379649   -1.2557897   -18.481691   -20.479611   -1.5957137   -19.201773  -0.11252573   -1.2291935    -9.657852   -20.402515   -1.6061334    -9.762558            0            0            0   -3.3503994   -1.5194769   -40.598237 
   11200    40.414702    7392.6213    7453.7111    1292.0792    714.65169  -0.44168257   -1.2953989   -18.460626   -20.555648    -1.612942   -19.231603  -0.16923061   -1.2957449    -9.523765   -20.483112   -1.6618321   -9.7380547            0            0            0   -3.3845693   -1.5263293   -40.600093 
   11300    40.414702     7084.529    6997.0288    943.97985    711.02002  -0.46449615   -1.3902289   -18.332499   -20.576661   -1.5428505   -19.251543  -0.17212789   -1.4295048   -9.4148274   -20.513756   -1.5907634   -9.6694802            0            0            0   -3.4187392   -1.5331817   -40.601949 
   11400    40.414702    6158.5328    6288.7779   -570.22731    719.63232  -0.46783958   -1.5054415   -18.320937    -20.65449   -1.5798796   -19.248518   -0.2095149   -1.5219983   -9.4309458   -20.469644   -1.5648978   -9.7258252            0            0            0   -3.4529092   -1.5400341   -40.603806 
   11500    40.414702    6551.8261    5983.3954   -800.62468    720.64296  -0.53645897   -1.5722821   -18.244858   -20.625303   -1.6712652   -19.231107  -0.27845445   -1.5744993   -9.2699551   -20.428425   -1.6516382   -9.7191691            0            0            0   -3.4870791   -1.5468865   -40.605662 
   11600    40.414702     5605.414     5334.191   -2425.4942    723.56438  -0.58484982   -1.4950014   -18.249374   -20.638122   -1.7438845   -19.149507   -0.2369388   -1.5084871   -9.2634316   -20.462375   -1.7534973   -9.6506686            0            0            0    -3.521249   -1.5537389   -40.607519 
   11700    40.414702    5843.3453    5517.3784   -1061.2003    703.74585  -0.57671265    -1.510666   -18.297909   -20.704949   -1.7961444   -19.079326  -0.18583773   -1.5334658   -9.3309515   -20.512027   -1.8546811   -9.5793179            0            0            0    -3.555419   -1.5605913   -40.609375 
   11800    40.414702    6137.1141    5928.6984   -1273.9281    710.82506  -0.61238462   -1.5782219   -18.303389   -20.749355   -1.8941308   -19.103176  -0.21142777   -1.6290856   -9.4155771   -20.527309   -1.9358979   -9.5729046            0            0            0   -3.5895889   -1.5674437   -40.611232 
   11900    40.414702    6123.1755      6032.94   -1484.8024    711.73439  -0.63052307   -1.6582244   -18.338868   -20.725654   -1.8033733   -19.088548  -0.21476318   -1.7523666   -9.4660049   -20.502263   -1.9274081    -9.481254            0            0            0   -3.6237589   -1.5742961   -40.613088 
   12000    40.414702    5441.1998    5330.8773   -1817.7336    722.87943  -0.63185475   -1.6849499   -18.316772   -20.781569   -1.7208733   -19.203058  -0.32101897   -1.7293679   -9.4241312    -20.58541   -1.8669678    -9.624585            0            0            0   -3.6579288   -1.5811485   -40.614944 
   12100    40.414702    5582.6349    6085.5481   -673.49678    720.23366  -0.66077965   -1.7642613   -18.318971   -20.764501   -1.8276154   -19.299645  -0.39847472   -1.7892636    -9.394536   -20.603253   -1.9273742   -9.7256621            0            0            0   -3.6920987   -1.5880009   -40.616801 
   12200    40.414702    7144.1024    7336.0999    705.24307    724.79476    -0.657978   -1.6854189   -18.344385   -20.756208   -1.9092402   -19.326964   -0.3652414   -1.7799875   -9.4075715   -20.639777   -2.0292815   -9.8360399            0            0            0   -3.7262687   -1.5948533   -40.618657 
   12300    40.414702    7232.3529    7158.4385    910.32435    721.79574  -0.68492349   -1.5985901   -18.377456   -20.835805   -1.9338661   -19.376576  -0.38026711   -1.6966905   -9.5041699   -20.756749   -1.9537606   -9.9610508            0            0            0   -3.7604386   -1.6017057   -40.620514 
   12400    40.414702    8239.5324    7316.3682    2012.0083    728.10435  -0.71009715   -1.5980615     -18.4438   -20.790677   -1.9397446   -19.274013  -0.42319215   -1.6841029   -9.5654017    -20.66472    -1.980375   -9.8324545            0            0            0   -3.7946086   -1.6085581    -40.62237 
   12500    40.414702    7134.4464    7317.4335    1479.6636    724.49442  -0.78267905   -1.6437362   -18.545364   -20.867026   -1.8796666   -19.268872  -0.50088164   -1.7161327   -9.6350812   -20.720306   -2.0075676   -9.8002331            0            0            0   -3.8287785   -1.6154105   -40.624227 
   12600    40.414702    7481.8114    7601.2957    1993.9584    733.23326  -0.79288985   -1.6553635   -18.565295   -20.922231   -1.7969008   -19.318082  -0.49970362   -1.6753256   -9.7176964   -20.722172   -1.9515117   -9.8505746            0            0            0   -3.8629484   -1.6222629   -40.626083 
   12700    40.414702    7745.3061    7425.6668    1481.2827    712.07632  -0.85510839   -1.6532903   -18.505209   -20.949712   -1.7357648   -19.268472   -0.5315862   -1.6746504   -9.6653711   -20.764332   -1.8374327   -9.7672165            0            0            0   -3.8971184   -1.6291153    -40.62794 
   12800    40.414702    7287.7356    6822.6725    940.84592    729.23147  -0.91304288   -1.6390294   -18.422945   -20.978792   -1.7499058   -19.234019  -0.51243116   -1.7455901   -9.5745536   -20.749875   -1.8325775   -9.6942599            0            0            0   -3.9312883   -1.6359677   -40.629796 
   12900    40.414702    6930.0621    6786.1012   -121.56733    718.10353  -0.94647473   -1.5328279   -18.365497   -21.054481   -1.7346041   -19.278362  -0.54180851   -1.5849158   -9.4679196   -20.838674   -1.7098154   -9.7660981            0            0            0   -3.9654583   -1.6428201   -40.631652 
   13000    40.414702    6165.2062    5819.9371   -1320.0351    714.83511  -0.97358945   -1.4640443    -18.31725   -21.109415   -1.7578154   -19.271098  -0.58255849   -1.4922135   -9.3446756   -20.868267    -1.783384   -9.7079175            0            0            0   -3.9996282   -1.6496725   -40.633509 
   13100    40.414702    6061.9061    6194.8577   -1111.2121    709.97883   -1.0039832    -1.455499    -18.28258   -21.114477   -1.7055856    -19.17706  -0.62948753   -1.4252977   -9.2519296   -20.860358   -1.7621405     -9.71056            0            0            0   -4.0337981   -1.6565248   -40.635365 
   13200    40.414702    5291.7215     5722.224   -2230.4358     704.8204   -1.0221978   -1.4464067   -18.268592   -21.180557    -1.634485    -19.16401   -0.7165416   -1.3056356   -9.2615473   -21.022872   -1.6543699   -9.7126479            0            0            0   -4.0679681   -1.6633772   -40.637222 
   13300    40.414702     6196.912    5997.9879   -1801.5737    710.39935   -1.0389377    -1.456631   -18.277368   -21.216323   -1.6037562   -19.111622   -0.7314049   -1.3256133   -9.3422959    -21.04003    -1.571819    -9.561318            0            0            0    -4.102138   -1.6702296   -40.639078 
   13400    40.414702    4880.9396    5071.4047   -1600.3346    726.49467   -1.1555467   -1.4312807   -18.356739   -21.221658    -1.592064   -19.157014  -0.86532715    -1.358602   -9.4608892    -21.09447   -1.4728608   -9.5617263            0            0            0   -4.1363079    -1.677082   -40.640935 
   13500    40.414702    5875.6588    5939.7584   -527.46936    715.73359   -1.2070021    -1.381494   -18.381485   -21.294191   -1.6081122    -19.15601  -0.92266697   -1.2863051   -9.4827412   -21.144444   -1.4385225   -9.5516095            0            0            0   -4.1704779   -1.6839344   -40.642791 
   13600    40.414702    6684.9522    6271.2659   -141.15757    705.00411   -1.2454882   -1.3676405   -18.386482   -21.377893   -1.6287154   -19.205144  -0.95588757    -1.302101   -9.5202167    -21.18352   -1.4775803    -9.609764            0            0            0   -4.2046478   -1.6907868   -40.644647 
   13700    40.414702    6203.1616    7373.4451    365.12347    712.92429   -1.3286143   -1.3959879   -18.377037   -21.355669   -1.5595269   -19.277571   -1.0453089   -1.3028758   -9.4374074   -21.204263   -1.4661211   -9.7476325            0            0            0   -4.2388178   -1.6976392   -40.646504 
   13800    40.414702    7108.6276    7286.0593    756.67286     726.7287   -1.3609559   -1.3306372   -18.406583   -21.438786   -1.5468088   -19.334586    -1.014136   -1.2217891   -9.4700279   -21.294242    -1.506611   -9.8415396            0            0            0   -4.2729877   -1.7044916    -40.64836 
   13900    40.414702    7490.2714    7458.8492    1067.6826    721.42813   -1.3757955   -1.3741789   -18.387621   -21.533256   -1.6092093   -19.403692   -1.0664174   -1.3055533   -9.4616032   -21.411441   -1.6565585   -9.9562194            0            0            0   -4.3071576    -1.711344   -40.650217 
   14000    40.414702    7495.7012     7575.776      846.294    728.41508   -1.4180215   -1.3881191   -18.489308   -21.490688   -1.6484448   -19.411177   -1.2068894   -1.3715031   -9.6058629   -21.393857   -1.6469948   -9.9891669            0            0            0   -4.3413276   -1.7181964   -40.652073 
   14100    40.414702    7415.2114    7738.0628    1482.1715    729.02358   -1.4677189   -1.3867548    -18.49088   -21.536196   -1.5915679   -19.377095    -1.277151   -1.3600177   -9.5885574   -21.461982   -1.5234928   -9.9082099            0            0            0   -4.3754975   -1.7250488    -40.65393 
   14200    40.414702    7555.9199    7527.9239    1316.1404     718.3771   -1.4077884   -1.4847027   -18.495561    -21.54742   -1.6602326   -19.270638   -1.2188758    -1.499261   -9.6284942   -21.494387   -1.6192051   -9.7385311            0            0            0   -4.4096675   -1.7319012   -40.655786 
   14300    40.414702    7388.3243    7135.1896    546.81511    724.15682   -1.4961176   -1.5176288   -18.497196   -21.553207   -1.7210679   -19.314805   -1.2784838   -1.4506388   -9.6538944   -21.570695   -1.7413704    -9.795578            0            0            0   -4.4438374   -1.7387536   -40.657642 
   14400    40.414702    6806.9354    6826.3365    645.70004    722.05253   -1.5421242   -1.5732122   -18.476653   -21.547478   -1.7076393   -19.301742   -1.2807672   -1.4937941    -9.619156   -21.496525   -1.7518601   -9.7446889            0            0            0   -4.4780073    -1.745606   -40.659499 
   14500    40.414702    6597.8577    6295.5136   -776.65619    716.56127   -1.5352236   -1.5751863   -18.373924   -21.605458   -1.7601353    -19.26074    -1.261317   -1.5053036   -9.4532031   -21.489968   -1.7718802   -9.7048419            0            0            0   -4.5121773   -1.7524584   -40.661355 
   14600    40.414702    6737.5517    6493.4588   -433.75721     722.1119    -1.537509   -1.6772146    -18.32374   -21.703684   -1.8672325   -19.284749    -1.215566   -1.7118491   -9.3405026   -21.533327   -1.9684946   -9.8316414            0            0            0   -4.5463472   -1.7593108   -40.663212 
   14700    40.414702    5570.7366    5920.9059   -1422.2616    719.31635   -1.6003363   -1.6866598   -18.353245   -21.727969   -1.8880695   -19.307808   -1.2640655   -1.7443813    -9.390615   -21.498704   -1.9203714   -9.8058581            0            0            0   -4.5805172   -1.7661632   -40.665068 
   14800    40.414702     5971.951    5880.0363   -1147.7733    719.60926   -1.6374438   -1.6832093   -18.336337    -21.76086   -1.9435246   -19.262714   -1.2802007   -1.7111971   -9.4300361     -21.5176   -1.9542379   -9.7752226            0            0            0   -4.6146871   -1.7730156   -40.666925 
   14900    40.414702    5998.8973    5841.3606   -2058.7391    706.12412   -1.6515831   -1.8293938   -18.304518    -21.77658   -1.9982795   -19.222624   -1.2181373   -1.8862826   -9.3873588   -21.526322    -2.051323   -9.7443747            0            0            0    -4.648857    -1.779868   -40.668781 
   15000    40.414702    6585.5326    5463.1333   -1297.7074    720.88817   -1.6983339   -1.8026739   -18.388256   -21.781919   -2.0066737   -19.220746   -1.3034516   -1.8306662   -9.4512738   -21.545298   -2.0942445   -9.6402764            0            0            0    -4.683027   -1.7867204   -40.670638 
   15100    40.414702    5718.5669    6012.2694   -1216.5206    711.84949   -1.7540768   -1.8654561   -18.486549   -21.804001   -2.0067135   -19.244309   -1.3836066   -1.9106583   -9.5459244   -21.566477   -2.0939524   -9.6864782            0            0            0   -4.7171969   -1.7935728   -40.672494 
   15200    40.414702    6998.3032    7259.2468    381.34142    710.94442   -1.7132646   -1.8748068   -18.466727   -21.826193   -2.0941758   -19.240522   -1.3802904   -1.9167723    -9.571619   -21.609108   -2.1714853    -9.750442            0            0            0   -4.7513669   -1.8004252    -40.67435 
   15300    40.414702    7283.6135    7171.1042    802.02745    725.56868   -1.7089922   -1.8648976   -18.510029    -21.87653   -2.0836148   -19.281162   -1.3915506   -1.8736286    -9.648833    -21.70112   -2.1282971   -9.7847148            0            0            0   -4.7855368   -1.8072776   -40.676207 
   15400    40.414702    6989.6681     7294.079    607.09102    713.98444   -1.7151149   -1.8821433   -18.503473   -21.890886   -2.1276403   -19.347364   -1.4268338   -1.8855302    -9.653311   -21.752117   -2.1168586   -9.8046515            0            0            0   -4.8197067     -1.81413   -40.678063 
   15500    40.414702    7320.5353    7372.8788    924.29866    723.06677   -1.7789918   -1.9081732   -18.447638   -21.932435   -2.1383458   -19.400843   -1.4848267   -1.9325616   -9.6042426   -21.879649   -2.1519551   -9.9425755            0            0            0   -4.8538767   -1.8209824    -40.67992 
   15600    40.414702    7046.6287    7261.5543    1177.8267    723.75867   -1.8373205    -1.929274   -18.520738    -21.94991   -2.1067014   -19.405866   -1.5880545   -1.8980972    -9.684148   -21.853121   -2.1124905   -9.9342316            0            0            0   -4.8880466   -1.8278348   -40.681776 
   15700    40.414702    7402.4866    7543.2537    1505.0364    725.76612    -1.876134   -1.8793473   -18.508698   -21.966504   -2.0778962   -19.376615   -1.6338285   -1.8698736   -9.6443615   -21.824248   -2.1535223    -9.906659            0            0            0   -4.9222165   -1.8346872   -40.683633 
   15800    40.414702    7090.5442    6912.9488    427.60182    723.47543   -1.9425218   -1.9291704   -18.453497   -22.015062   -2.0366145   -19.304844   -1.6919596   -1.9817978   -9.4739877   -21.934005   -2.1349154   -9.8052279            0            0            0   -4.9563865   -1.8415396   -40.685489 
   15900    40.414702    6408.2267    6462.0446   -124.11291    725.57117    -1.965867    -1.820867   -18.459436   -22.071256   -2.0152798   -19.280119   -1.6690571   -1.8205656    -9.586045   -21.943631   -2.0765984   -9.7170421            0            0            0   -4.9905564    -1.848392   -40.687345 
   16000    40.414702    6222.6467    5930.9442   -706.33876    715.89123    -1.993747    -1.763514   -18.425677   -22.172177   -1.9365285   -19.286824   -1.6493946   -1.8179907   -9.5541759   -22.007075   -2.0091451   -9.7365587            0            0            0   -5.0247264   -1.8552444   -40.689202 
   16100    40.414702    6225.5907    5898.5134   -1011.0928    712.24477   -2.0225218   -1.7475812   -18.466825   -22.180679   -1.9767625    -19.31191   -1.6760891   -1.8362095   -9.6176423    -21.99954   -2.0517938   -9.7829565            0            0            0   -5.0588963   -1.8620968   -40.691058 
   16200    40.414702    6270.6065    7061.5436   -209.49073    711.78957   -2.1344954    -1.712363   -18.462882    -22.18874   -1.9563193   -19.286769   -1.7873463   -1.7441403    -9.593902   -21.993601    -2.028697   -9.7544424            0            0            0   -5.0930662   -1.8689492   -40.692915 
   16300    40.414702    6465.4335    5841.7267   -700.49635    712.13646   -2.1421724   -1.6091526   -18.350056   -22.230967   -1.8937433   -19.187338   -1.7922125   -1.6179173     -9.38538   -21.981829   -1.9741842   -9.7415567            0            0            0   -5.1272362   -1.8758016   -40.694771 
   16400    40.414702    5979.2296    5913.2306   -1317.9222    721.09665   -2.1283316   -1.6399906   -18.378298   -22.297157   -1.7947535   -19.295916   -1.8137259   -1.6418025   -9.3578184   -22.113451   -1.8658847   -9.8437162            0            0            0   -5.1614061    -1.882654   -40.696628 
   16500    40.414702    6241.7668    6890.0392   -514.66011    713.29424   -2.2112242   -1.6631049   -18.442832   -22.320567   -1.8202374   -19.373621   -1.8205483   -1.6505359   -9.4588383   -22.166893   -1.7806243   -9.9008235            0            0            0   -5.1955761   -1.8895064   -40.698484 
   16600    40.414702    6414.4287    6866.0921   -399.93802    699.69336   -2.2153254   -1.6500285   -18.442484   -22.340421   -1.7769049   -19.357006   -1.8793135   -1.6116878   -9.5102725   -22.186968   -1.6619697   -9.8008687            0            0            0    -5.229746   -1.8963588   -40.700341 
   16700    40.414702    6561.8516    6204.2404   -109.07448     730.4815   -2.2508141   -1.6037984   -18.412458    -22.40219   -1.7958203   -19.376721   -1.9841244   -1.4496523   -9.5194015   -22.244614   -1.6457593   -9.8053182            0            0            0   -5.2639159   -1.9032112   -40.702197 
   16800    40.414702    7376.9897      7127.45    1413.1199    725.76141   -2.3268396   -1.5727549   -18.518879   -22.435747   -1.7774494   -19.372347   -2.0380695   -1.3443117   -9.6632812   -22.285619   -1.6417361   -9.8567526            0            0            0   -5.2980859   -1.9100636   -40.704053 
   16900    40.414702    7410.9002    7474.3041    1407.8219    719.00611   -2.3711213   -1.5823791   -18.587605   -22.468377   -1.7613798   -19.340128   -2.1012065   -1.4111607   -9.7637251   -22.295023   -1.6340152   -9.8456599            0            0            0   -5.3322558    -1.916916    -40.70591 
   17000    40.414702    7381.4942    7512.1277    1254.9451    728.52828   -2.4052631    -1.512321   -18.578687    -22.52321   -1.8074598   -19.363906   -2.0911179   -1.3554108   -9.7041184   -22.380139   -1.6288295     -9.96692            0            0            0   -5.3664258   -1.9237684   -40.707766 
   17100    40.414702    7065.5857    7505.3178    863.69234    725.88867    -2.436606   -1.5265023   -18.510742   -22.527598   -1.7981243   -19.425241   -2.1242179   -1.4500171   -9.5604126   -22.455652   -1.6695619   -9.9705809            0            0            0   -5.4005957   -1.9306208   -40.709623 
   17200    40.414702    7574.6771    7588.3876    1366.5196    718.61453   -2.4697576    -1.596894   -18.451505   -22.575514   -1.8123998   -19.427305    -2.198223    -1.539442   -9.5237962   -22.426297   -1.7583302    -9.959434            0            0            0   -5.4347656   -1.9374732   -40.711479 
   17300    40.414702     6873.213    6500.4239    341.28914    732.29446   -2.5225636   -1.6500217   -18.430629   -22.658859    -1.769362   -19.430542   -2.2263822   -1.5737536   -9.5920766   -22.511844   -1.7219062   -9.9396615            0            0            0   -5.4689356   -1.9443256   -40.713336 
   17400    40.414702    6942.0161    7238.2654    420.49451    720.37807   -2.5455091   -1.6595733   -18.438593   -22.658224   -1.8514765   -19.354921   -2.2961776   -1.5593718   -9.5759619   -22.522492   -1.8321123   -9.7786021            0            0            0   -5.5031055    -1.951178   -40.715192 
   17500    40.414702    6132.4896    6393.8994   -285.97273    718.52444   -2.5927649   -1.7344673   -18.490668   -22.680723     -1.91666   -19.309427   -2.3070138   -1.6645569   -9.5829488   -22.549662   -1.9055706   -9.7643834            0            0            0   -5.5372754   -1.9580304   -40.717048 
   17600    40.414702    5705.8283    6171.6348   -994.44907     713.8672   -2.5980735   -1.7346886   -18.475742   -22.726453   -1.9736621   -19.178415   -2.2858489   -1.6981802   -9.5605907   -22.643721   -1.9302762   -9.7072057            0            0            0   -5.5714454   -1.9648828   -40.718905 
   17700    40.414702    6487.3208    5993.9241   -562.61038    733.45454   -2.6539212   -1.7842937   -18.453208   -22.709111   -2.0027877   -19.186395   -2.3856903   -1.7723111   -9.5406786   -22.591479   -2.0116652    -9.743179            0            0            0   -5.6056153   -1.9717352   -40.720761 
   17800    40.414702    5838.5571    6055.7504   -848.94292    712.44841   -2.6830368   -1.8347145    -18.41491   -22.737815   -2.0143509   -19.256312   -2.4009808   -1.8056003   -9.5197477   -22.580915   -2.0434372   -9.7809483            0            0            0   -5.6397853   -1.9785876   -40.722618 
   17900    40.414702    6207.6506    5858.2189   -1274.8161    718.80449   -2.6614963   -1.9299613   -18.397011   -22.800494   -2.0837124   -19.312118   -2.3329791   -1.9231834   -9.4586522   -22.623108    -2.180387   -9.8378542            0            0            0   -5.6739552     -1.98544   -40.724474 
   18000    40.414702    5742.0314    5480.4678    -1143.405    729.14167   -2.6983099   -1.9684026   -18.352373   -22.832327   -2.1304097   -19.356757   -2.3614753   -1.9933669   -9.4034505   -22.622133   -2.2120916   -9.7958433            0            0            0   -5.7081251   -1.9922924   -40.726331 
   18100    40.414702    6380.4395    5927.9961   -18.155236    718.21491   -2.7058021   -1.9875345   -18.430139   -22.887948   -2.1208326   -19.341844   -2.3418507   -2.0188617   -9.5306553   -22.706897   -2.1704827   -9.7959995            0            0            0   -5.7422951   -1.9991448   -40.728187 
   18200    40.414702    6502.9239    6507.0918    -505.3934    714.73267   -2.7158125    -2.032758   -18.467772   -22.867948   -2.2024105   -19.318645   -2.3791301   -2.1166167   -9.5813311   -22.710149   -2.2895341   -9.8403752            0            0            0    -5.776465   -2.0059972   -40.730043 
   18300    40.414702    7247.3631    6763.0316    477.93104    725.33048   -2.8094814   -2.0389518   -18.581408   -22.885917   -2.2843392   -19.312691   -2.4944684   -2.1519266   -9.7432661   -22.729791   -2.3399173   -9.7830343            0            0            0    -5.810635   -2.0128495     -40.7319 
   18400    40.414702    6953.3987    7153.1311    996.03271    725.27384   -2.8340449   -1.9983682   -18.604319   -22.955677     -2.31353   -19.291746   -2.5131866   -2.0702019   -9.7312368   -22.784041    -2.382877   -9.8024521            0            0            0   -5.8448049   -2.0197019   -40.733756 
   18500    40.414702    7153.9016    6772.9725    890.04522    714.72047   -2.8726029   -2.1101917   -18.572547   -22.995011   -2.2822738   -19.310597   -2.5669913   -2.1081132   -9.6762692   -22.775392   -2.3679024   -9.8916529            0            0            0   -5.8789748   -2.0265543   -40.735613 
   18600    40.414702    7288.3114    7374.3727    1402.6642    719.01914   -2.8786951   -2.1502678   -18.572393   -22.967233   -2.2903735   -19.460818   -2.5784962   -2.1228549   -9.7095548   -22.803751   -2.3975942   -10.039322            0            0            0   -5.9131448   -2.0334067   -40.737469 
   18700    40.414702    7281.8243    7310.4472    1335.2611    715.82033    -2.931447   -2.1603867   -18.519665    -23.00287   -2.3097012   -19.494833    -2.642316   -2.1525988   -9.6565371   -22.881486   -2.3032145   -10.006184            0            0            0   -5.9473147   -2.0402591   -40.739326 
   18800    40.414702    6941.4975     7413.338    710.73284    727.47296    -2.936775   -2.1744071   -18.408038   -23.104364   -2.3126331    -19.50313   -2.6285083   -2.1986787   -9.4834719   -22.992729   -2.2305426   -9.9837712            0            0            0   -5.9814847   -2.0471115   -40.741182 
   18900    40.414702    6905.9475    6799.2469    624.52063    714.06042   -2.9909046   -2.0916714   -18.419789   -23.120643   -2.3687675   -19.395135   -2.7104996   -2.1214285   -9.5226378   -22.994824    -2.378605   -9.8575375            0            0            0   -6.0156546   -2.0539639   -40.743039 
   19000    40.414702    6124.2996    6331.1367   -102.72768    730.57545   -3.0718484   -2.0727318   -18.505399   -23.117211   -2.3270774   -19.385369   -2.7593689   -2.0586461   -9.6409107   -22.968507    -2.396959   -9.9024639            0            0            0   -6.0498245   -2.0608163   -40.744895 
   19100    40.414702    6363.4734    5534.5775    -1503.641    722.10028    -3.076594   -2.0806732   -18.556686    -23.17882   -2.2939127   -19.304418   -2.7551855   -2.0689932   -9.6602094    -22.98129   -2.3955384   -9.8303999            0            0            0   -6.0839945   -2.0676687   -40.746751 
   19200    40.414702    5589.7837    5629.1716   -796.61387    722.62292   -3.0991553   -2.0624158    -18.53771   -23.241854   -2.2095157   -19.186255   -2.7967226   -2.0912309   -9.6196909   -23.061494   -2.3208581   -9.6924262            0            0            0   -6.1181644   -2.0745211   -40.748608 
   19300    40.414702    6268.6289    6133.2312   -1195.6683     710.5666   -3.1499532   -2.0330413   -18.489993   -23.280548   -2.1483663    -19.22432   -2.7813438   -2.0843439   -9.5808407   -23.134012   -2.2028588    -9.726498            0            0            0   -6.1523343   -2.0813735   -40.750464 
   19400    40.414702    6048.5318    5710.3129   -1500.8924    723.44278   -3.1141299   -2.0353474   -18.440771   -23.311336   -2.1252149   -19.290168   -2.7890655   -2.1515457   -9.5605512   -23.183475    -2.181356   -9.7924769            0            0            0   -6.1865043   -2.0882259   -40.752321 
   19500    40.414702    6772.9045    5497.4249   -361.75797    720.30953    -3.202456   -1.9279708   -18.411544   -23.291771   -2.1297744    -19.43798   -2.8795409   -2.0185214   -9.4525758   -23.126254   -2.2348393   -9.9086667            0            0            0   -6.2206742   -2.0950783   -40.754177 
   19600    40.414702    6096.0913    6290.5051    -336.5253    725.00231   -3.2903505   -1.8763571   -18.326711   -23.341421   -2.1376123   -19.498826   -2.9676163   -1.8774851   -9.3776555    -23.16478   -2.2533562   -9.9603819            0            0            0   -6.2548442   -2.1019307   -40.756034 
   19700    40.414702    7033.8979    6912.5147   -61.880289    709.60582   -3.2824189   -1.8323813   -18.381481   -23.373982   -2.1684909   -19.432685   -2.9610062   -1.8034096   -9.4125634   -23.194003   -2.1905189   -9.9267305            0            0            0   -6.2890141   -2.1087831    -40.75789 
   19800    40.414702    7285.8503    6428.8942    786.02103    722.84225    -3.311047   -1.8731892   -18.480483   -23.420351    -2.123675   -19.444645   -3.0094731    -1.791262   -9.5901413   -23.225954   -2.0614349   -10.013528            0            0            0    -6.323184   -2.1156355   -40.759746 
   19900    40.414702    7039.3529    6997.5265    1117.3737    720.52911   -3.3529824   -1.8907999   -18.643311   -23.459796   -1.9926414   -19.378319   -3.0137243   -1.8227953   -9.7918795   -23.334481   -1.8319113   -9.9873965            0            0            0    -6.357354   -2.1224879   -40.761603 
   20000    40.414702    7326.7146    6925.5122    1005.2546    733.19247   -3.3397236   -1.9383433   -18.741703   -23.504297   -1.9926762    -19.30649   -3.0518518    -1.819802   -9.8853799   -23.369469   -1.8672316   -9.8524743            0            0            0   -6.3915239   -2.1293403   -40.763459 
   20100    40.414702    7562.3229    7750.8868     1577.628    697.69047   -3.4097093   -1.9135446   -18.707113   -23.536994   -2.0549354   -19.299562   -3.1087752   -1.7632145   -9.8538391   -23.428949   -1.9432154   -9.7199978            0            0            0   -6.4256939   -2.1361927   -40.765316 
   20200    40.414702    6732.9307    7390.5109    708.58956    726.99038   -3.4509421   -1.7956864   -18.688287   -23.573412   -1.9994894    -19.37542   -3.1682824   -1.6675152     -9.88603   -23.389504   -1.9203967   -9.8283495            0            0            0   -6.4598638   -2.1430451   -40.767172 
   20300    40.414702    7347.4139    6910.5998    459.74953    729.06631   -3.4768289   -1.7700038   -18.543279   -23.612066   -2.0709321   -19.477314   -3.1576944   -1.6354282   -9.7353338   -23.443623   -1.9465143   -9.9216558            0            0            0   -6.4940337   -2.1498975   -40.769029 
   20400    40.414702     7000.829    6918.5551    86.018766    718.77922   -3.5082814   -1.8224875   -18.489737   -23.644051   -2.1063518   -19.472112   -3.1384564   -1.7012954   -9.6144659   -23.469276   -2.0115232   -9.9771403            0            0            0   -6.5282037   -2.1567499   -40.770885 
   20500    40.414702    6792.0685    7398.4121    876.03661      711.843   -3.5804102   -1.8298608   -18.409575   -23.603468   -2.0259784   -19.463191   -3.2155189   -1.7852797   -9.4506243   -23.443109    -1.977384   -9.9766342            0            0            0   -6.5623736   -2.1636023   -40.772742 
   20600    40.414702    6376.2738    5848.9075     -961.261    714.09771   -3.5668665   -1.9792468   -18.475549   -23.718958   -2.0365051   -19.397673   -3.2402469   -1.8640896   -9.5428955   -23.546728   -1.9791369   -9.9928457            0            0            0   -6.5965436   -2.1704547   -40.774598 
   20700    40.414702    5930.1623    6456.6578   -912.03318    716.92699    -3.579293   -1.9957199   -18.554354   -23.760508    -2.063041   -19.295128   -3.2775105   -1.9390691   -9.6237803   -23.553583    -2.087805   -9.8690658            0            0            0   -6.6307135   -2.1773071   -40.776454 
   20800    40.414702    5660.5649    5769.6728   -1053.4957    728.29742   -3.6675359   -1.9707071   -18.624606   -23.723899   -2.1108158   -19.246009   -3.3232467   -1.9265389   -9.7643071   -23.543732   -2.1549401   -9.6938631            0            0            0   -6.6648834   -2.1841595   -40.778311 
   20900    40.414702    6033.9606    6233.7489   -547.48394     710.1908   -3.6800073   -1.9579884   -18.512906   -23.837253   -2.2362577   -19.266326   -3.3306474   -1.9258227   -9.6525401   -23.665525   -2.2306053   -9.6757388            0            0            0   -6.6990534   -2.1910119   -40.780167 
   21000    40.414702    5912.3916    6296.1101   -308.24533    723.22168   -3.6547564   -2.0006596   -18.505642   -23.863066   -2.3259461   -19.311323   -3.2833079   -2.0231145   -9.6519311   -23.666658     -2.32857   -9.7409815            0            0            0   -6.7332233   -2.1978643   -40.782024 
   21100    40.414702    6557.4725    6679.2148   -138.20102    715.76058   -3.7951254   -2.0654833   -18.469232   -23.845304   -2.3200786   -19.414542   -3.4308149   -2.0528362   -9.5649819   -23.698337   -2.3223576   -9.9128243            0            0            0   -6.7673932   -2.2047167    -40.78388 
   21200    40.414702    6527.0398    6362.8651   -141.07038    717.70735   -3.8299347   -2.1429754   -18.477815   -23.868579   -2.2803691    -19.49547   -3.4996778   -2.1494015   -9.4927453   -23.704628   -2.3273495    -10.03511            0            0            0   -6.8015632   -2.2115691   -40.785737 
   21300    40.414702    5668.4858    6348.1908   -589.40623    730.28297   -3.7971941   -2.2176923   -18.461489   -23.980598   -2.2969833   -19.470271   -3.5328865   -2.2300375   -9.4901599   -23.823761   -2.3871888   -10.033794            0            0            0   -6.8357331   -2.2184215   -40.787593 
   21400    40.414702    7311.0993    7463.1909    826.86138     701.6259   -3.8909005    -2.215058   -18.488236   -23.999604    -2.346049    -19.42055   -3.6281272   -2.2760413   -9.6196063   -23.877686   -2.5038428   -9.9169537            0            0            0   -6.8699031   -2.2252739   -40.789449 
   21500    40.414702     7634.105    7454.5833    347.13651    720.31427   -3.9474391   -2.1267445   -18.581691   -24.050276   -2.4342811   -19.438749   -3.6571507   -2.2171541   -9.7216328   -23.953274   -2.5196154   -10.022156            0            0            0    -6.904073   -2.2321263   -40.791306 
   21600    40.414702    7355.2818    7489.7661    981.03945    719.80042   -3.9458779   -2.1947687   -18.682073   -24.100055   -2.4813829   -19.450308    -3.626772   -2.2533297   -9.8802564   -23.981381   -2.5673221    -9.956109            0            0            0   -6.9382429   -2.2389787   -40.793162 
   21700    40.414702    7056.3833    7064.1923    654.27668     715.9288   -4.0196074    -2.223466   -18.661318   -24.154328    -2.483715   -19.395889    -3.709474   -2.2711562    -9.774841   -24.016967   -2.5463173   -9.8821724            0            0            0   -6.9724129   -2.2458311   -40.795019 
   21800    40.414702    7427.4352    6997.4314    577.53009    708.94703   -4.0881556   -2.2517121   -18.584545   -24.163492   -2.4845136   -19.377783    -3.817895   -2.2062385   -9.6712189   -24.000762   -2.4675201   -9.8488664            0            0            0   -7.0065828   -2.2526835   -40.796875 
   21900    40.414702    6771.8143    6548.6918    113.22212    727.15215   -4.1154794    -2.361663   -18.601162   -24.189573   -2.4439045   -19.479444   -3.8353258   -2.2847816   -9.6713878   -24.077202     -2.42094   -10.026232            0            0            0   -7.0407528   -2.2595359   -40.798732 
   22000    40.414702    7159.2619    6920.1819    1006.7962    722.02952   -4.1502544   -2.3825936   -18.539854   -24.225143   -2.4620163   -19.518191   -3.8852552   -2.3705659   -9.6448091   -24.080286   -2.4250064   -10.053775            0            0            0   -7.0749227   -2.2663883   -40.800588 
   22100    40.414702     5914.538    5953.2264    367.17099    728.63305   -4.1677877   -2.3310044   -18.457194   -24.279961   -2.5184299   -19.487874   -3.8304616    -2.277603   -9.5339494   -24.161094   -2.5195165    -10.06256            0            0            0   -7.1090926   -2.2732407   -40.802445 
   22200    40.414702    6393.0322    6096.9258   -982.14579    722.27226   -4.1574237   -2.2394225   -18.447615   -24.304047   -2.5810133   -19.430768   -3.8389611   -2.1824832   -9.5730494   -24.173946   -2.5805321   -9.9535894            0            0            0   -7.1432626   -2.2800931   -40.804301 
   22300    40.414702    6219.1554    5796.0435   -541.16884    712.61156   -4.1785441   -2.2397407   -18.511272   -24.389982    -2.558689   -19.414352   -3.8908933   -2.2285967   -9.6500578    -24.23896   -2.6282378   -9.8642176            0            0            0   -7.1774325   -2.2869455   -40.806157 
   22400    40.414702    6001.0977    6284.2657   -872.52111    714.54417   -4.2830911   -2.2797366   -18.567677   -24.357766   -2.4452251   -19.354774   -3.9678371   -2.3293686   -9.6800827   -24.189519   -2.5322675    -9.814927            0            0            0   -7.2116025   -2.2937979   -40.808014 
   22500    40.414702    6014.3789    5631.4632   -1176.5333      725.811   -4.3187626   -2.2769157   -18.532923   -24.335792   -2.3710626   -19.294503   -4.0278074   -2.3056998   -9.6256513   -24.115375    -2.502086   -9.7537646            0            0            0   -7.2457724   -2.3006503    -40.80987 
   22600    40.414702    6747.6565    6916.2636    349.80554    692.45993   -4.2821921   -2.2189908   -18.621239    -24.44004   -2.3691858   -19.300877    -3.942721   -2.3193722   -9.6485891   -24.268398   -2.4586593   -9.8082195            0            0            0   -7.2799423   -2.3075027   -40.811727 
   22700    40.414702    6651.2935    6443.5447    436.10359    705.93777    -4.324568   -2.1329356   -18.586601   -24.460493   -2.3693498   -19.335571   -3.9400931   -2.2183981   -9.6148441   -24.300873   -2.5142035   -9.8811109            0            0            0   -7.3141123   -2.3143551   -40.813583 
   22800    40.414702    6698.8238    6333.2193   -766.69139    716.63797   -4.3797852   -2.1390953   -18.538187   -24.414549   -2.3855711    -19.49876   -4.0181228   -2.2029298   -9.6439552   -24.226687   -2.4622951   -10.059017            0            0            0   -7.3482822   -2.3212075    -40.81544 
   22900    40.414702    7302.0848    6679.0775    685.00028    717.71153   -4.3775513   -2.0610587   -18.564902    -24.53203   -2.3592286   -19.528615   -4.0547443   -2.0324175   -9.6921543   -24.346536   -2.4031943   -10.051424            0            0            0   -7.3824521   -2.3280599   -40.817296 
   23000    40.414702    7366.9179    7436.3423    792.86157    704.60696   -4.3387483   -2.1260456      -18.566   -24.530181   -2.2731283   -19.524614   -4.0432943   -2.0577311   -9.7132839   -24.359619   -2.2828952   -10.045522            0            0            0   -7.4166221   -2.3349123   -40.819152 
   23100    40.414702     7085.236    7845.7238    1094.5492    714.08998   -4.4432127   -2.1567029   -18.629098   -24.533872   -2.3057205   -19.500266   -4.1235292   -2.0501407   -9.8162557   -24.359815   -2.2228014   -9.9943763            0            0            0    -7.450792   -2.3417647   -40.821009 
   23200    40.414702    7349.4324    7276.4393    632.82635    720.54169   -4.4472126   -2.0989112    -18.64636   -24.550609   -2.2652669   -19.515189   -4.0982926   -1.9959489   -9.7506713   -24.399467    -2.171742   -10.006382            0            0            0    -7.484962   -2.3486171   -40.822865 
   23300    40.414702    6915.5621     7354.759    976.48603    710.86842   -4.4803897   -2.0366424   -18.670362   -24.599796   -2.2443683   -19.513111    -4.160101   -1.9178894   -9.7243954   -24.448404   -2.1237915   -9.9849047            0            0            0   -7.5191319   -2.3554695   -40.824722 
   23400    40.414702    7348.6834    7365.8674    1156.9141    714.39836   -4.5201693   -2.0737859   -18.684451   -24.633039   -2.2633039   -19.453406   -4.1841761   -1.9392435   -9.7641579   -24.475993    -2.171981   -9.9781478            0            0            0   -7.5533018   -2.3623219   -40.826578 
   23500    40.414702    6658.9297    8012.3676    1453.0821    712.29945   -4.5427576   -2.0250968   -18.601345   -24.647954   -2.2694852   -19.499839   -4.2455328   -1.9001916   -9.6622385   -24.452738   -2.1676391   -10.039886            0            0            0   -7.5874718   -2.3691742   -40.828435 
   23600    40.414702    6945.1368    6453.8816    244.80789    721.24265   -4.5686031   -2.0211722   -18.565345   -24.741832   -2.2710666   -19.524407   -4.2642668   -1.8751915   -9.6634719   -24.587939   -2.1819228   -10.038286            0            0            0   -7.6216417   -2.3760266   -40.830291 
   23700    40.414702    5965.7123    6404.8339    43.388085    714.95932   -4.6294959   -2.0520644   -18.561227    -24.70313   -2.3633993   -19.491644   -4.3055679   -1.9176219   -9.6837432    -24.56561   -2.2674648   -9.9909878            0            0            0   -7.6558117    -2.382879   -40.832147 
   23800    40.414702    5986.3149    6244.1573   -823.46001    714.35151   -4.6388926   -2.1224267   -18.506336     -24.7083   -2.2790898   -19.448087   -4.3021162   -1.9860628   -9.6654461   -24.575896   -2.2257246   -9.9293899            0            0            0   -7.6899816   -2.3897314   -40.834004 
   23900    40.414702    5642.9176      5988.52   -1116.1478    709.45792   -4.6291915   -2.0935578   -18.581813    -24.82917   -2.3805877   -19.382356    -4.310917   -1.9821843   -9.6945017   -24.697373   -2.3699674    -9.847151            0            0            0   -7.7241515   -2.3965838    -40.83586 
   24000    40.414702    6032.5109    6174.5286   -1419.0529    713.44322   -4.7100603   -2.1998804   -18.586762   -24.797889   -2.4256732   -19.325633   -4.4439196   -2.1075494   -9.6338622   -24.625952   -2.3205753   -9.7901189            0            0            0   -7.7583215   -2.4034362   -40.837717 
   24100    40.414702    5767.1972    6551.3077   -437.29527    708.31004   -4.7776165   -2.2047388   -18.594429   -24.834966   -2.5064577   -19.293524   -4.4784815   -2.1592546   -9.6519467   -24.681396   -2.4334508   -9.7549032            0            0            0   -7.7924914   -2.4102886   -40.839573 
[...]
  998900    40.414702    6001.8829    6309.4544   -670.77536    727.43118   -337.74147    -69.03025   -36.747654   -357.93583   -69.225682   -37.540304   -337.41677   -69.052662   -27.839823   -357.77452   -69.246287   -28.067662            0            0            0   -340.88106   -69.207465   -58.936113 
  999000    40.414702    6515.5425    6667.2313    96.391668    723.05596    -337.8366   -69.058658   -36.750978   -357.91934   -69.255472   -37.573711   -337.55956   -69.096331   -27.905319   -357.78045   -69.274203   -28.075296            0            0            0   -340.91523   -69.214318    -58.93797 
  999100    40.414702    6716.7611    6508.3251   -31.067763    724.44721   -337.89934   -69.070692   -36.708841   -357.97711   -69.260096   -37.565388   -337.63779   -69.139197   -27.816374    -357.8228   -69.318895   -28.103079            0            0            0    -340.9494    -69.22117   -58.939826 
  999200    40.414702    6388.0741     6377.276   -257.99929    722.95332   -337.87424    -69.05027   -36.656431   -358.09908   -69.258509   -37.517456   -337.62132   -69.018699   -27.735729   -357.92583   -69.286495   -28.070534            0            0            0   -340.98357   -69.228022   -58.941683 
  999300    40.414702    6473.2966    6457.6509   -675.22311    709.76192   -337.97685   -69.065927   -36.657273   -358.12109   -69.313647    -37.50973   -337.61543     -68.9941   -27.726234   -357.98933   -69.305146   -27.987656            0            0            0   -341.01774   -69.234875   -58.943539 
  999400    40.414702    5844.7353    6270.5616    -881.7516    718.43383   -338.08313   -69.116796   -36.690222   -358.15191   -69.335017   -37.555404   -337.74264   -69.087365   -27.779351   -358.03211   -69.352769   -28.098214            0            0            0   -341.05191   -69.241727   -58.945396 
  999500    40.414702    5903.0052    6199.2921   -1004.6901    726.31502   -338.04478   -69.117531   -36.681991   -358.18486   -69.318367   -37.552363   -337.76703   -69.092341   -27.771885   -358.07511   -69.250673   -28.086041            0            0            0   -341.08608    -69.24858   -58.947252 
  999600    40.414702    7039.2161    7051.0489   -669.04972    730.69526    -338.1268   -69.104772   -36.655518   -358.22165   -69.315074   -37.483751   -337.88219   -69.064707   -27.778556   -358.15132   -69.259551   -27.998212            0            0            0   -341.12025   -69.255432   -58.949109 
  999700    40.414702    7071.9415    6933.3307   -119.42662    708.45837   -338.16299   -69.115547   -36.712653   -358.24135   -69.338082   -37.552642   -337.94919   -69.114526   -27.861384     -358.134    -69.32803   -28.072925            0            0            0   -341.15442   -69.262284   -58.950965 
  999800    40.414702    6578.7161    6892.9819   -148.60969    704.77724   -338.17183   -69.144557   -36.804401   -358.34247   -69.400482   -37.617732   -337.90762   -69.086993   -27.884548   -358.24193   -69.418578   -28.130255            0            0            0   -341.18859   -69.269137   -58.952821 
  999900    40.414702    6734.0577    6737.2043    153.73431     724.2941   -338.24737   -69.135757   -36.711425   -358.38202   -69.383563   -37.623007   -337.93778   -69.071025   -27.806509   -358.28803   -69.372421   -28.094435            0            0            0   -341.22276   -69.275989   -58.954678 
 1000000    40.414702    7379.9951    7055.3822    582.74129    725.20687   -338.33657   -69.203935   -36.768771   -358.39441   -69.345492    -37.60736   -337.99667   -69.175075   -27.910009    -358.2406   -69.359755    -28.12146            0            0            0   -341.25693   -69.282842   -58.956534 
 1000100    40.414702    7672.3808    8072.1457    1333.7916    720.30436   -338.39452   -69.206219   -36.789578   -358.48719   -69.416757   -37.578984   -338.07804   -69.230929   -27.948002    -358.3279   -69.417292   -28.139127            0            0            0    -341.2911   -69.289694   -58.958391 
 1000200    40.414702    7121.8082    7311.2223    845.29625    735.40737   -338.38979   -69.232561   -36.775498   -358.50172   -69.379185   -37.603637   -338.07139   -69.246946   -27.901532   -358.31145   -69.379746   -28.139051            0            0            0   -341.32527   -69.296546   -58.960247 
 1000300    40.414702    6991.3771     6824.262   -223.77076    717.36867   -338.46262   -69.189544   -36.817754   -358.55245   -69.407373   -37.599772   -338.13387   -69.208185   -27.932944   -358.38655   -69.495832   -28.163965            0            0            0   -341.35944   -69.303399   -58.962104 
 1000400    40.414702    7056.3441    6599.8214      34.7404    712.88372   -338.49236    -69.19683   -36.701199   -358.58512   -69.427429   -37.632409   -338.16855   -69.178135   -27.812248   -358.42304   -69.484721   -28.208885            0            0            0   -341.39361   -69.310251    -58.96396 
 1000500    40.414702    7232.9301    7344.0592    290.56834     706.9433    -338.4918   -69.192129   -36.715521   -358.63239   -69.464593   -37.622902   -338.19282   -69.130581   -27.800214   -358.50178   -69.537708   -28.155135            0            0            0   -341.42778   -69.317103   -58.965816 
 1000600    40.414702    6503.7275    6766.8717   -118.80521    729.80777   -338.53107   -69.227982   -36.676639   -358.70127   -69.413784   -37.602551   -338.23758   -69.301062   -27.789871   -358.56933    -69.49112   -28.151824            0            0            0   -341.46195   -69.323956   -58.967673 
 1000700    40.414702    6074.8291    5980.7596   -613.43938    711.77965   -338.55856   -69.206089   -36.673126   -358.70961   -69.460741   -37.595143   -338.27477   -69.203443   -27.764502    -358.5957     -69.5104   -28.104451            0            0            0   -341.49612   -69.330808   -58.969529 
 1000800    40.414702    6032.9623    6220.6502   -586.90334    707.99206    -338.6086   -69.234084   -36.688316   -358.70466   -69.389754   -37.549427   -338.30549   -69.231982   -27.817577   -358.56852   -69.426605   -28.024558            0            0            0   -341.53028   -69.337661   -58.971386 
 1000900    40.414702    6239.5523    6310.7682   -1562.4604    719.65642   -338.64508    -69.23091    -36.67034    -358.7387   -69.441283   -37.528038   -338.39867   -69.250509   -27.791243   -358.62332   -69.543492   -28.015842            0            0            0   -341.56445   -69.344513   -58.973242 
 1001000    40.414702    6285.3725    5741.6646   -931.87944    722.58208    -338.6463   -69.225838   -36.688142   -358.74956   -69.392709   -37.567099   -338.35394   -69.213719   -27.833332   -358.65811   -69.460467   -28.074294            0            0            0   -341.59862   -69.351365   -58.975099 
 1001100    40.414702    6114.0647    6541.9262   -304.93346    737.99829   -338.67406   -69.183588   -36.689643   -358.76841   -69.368593   -37.583199   -338.37516   -69.141686   -27.864895   -358.67046   -69.414527     -28.0931            0            0            0   -341.63279   -69.358218   -58.976955 
 1001200    40.414702    6645.1538    6665.8636    -351.2144    725.27045    -338.6448   -69.226958   -36.685295   -358.81194   -69.442135   -37.622784   -338.37433   -69.215262   -27.799895   -358.70311   -69.480126   -28.119014            0            0            0   -341.66696    -69.36507   -58.978811 
 1001300    40.414702    5855.3147    5985.7379   -518.87689    725.86784   -338.66446   -69.189996   -36.743901   -358.82366   -69.426753   -37.659355   -338.34616   -69.149781   -27.865743   -358.69121   -69.409627   -28.197455            0            0            0   -341.70113   -69.371923   -58.980668 
 1001400    40.414702    6641.9075    7339.2833    13.283245    711.88055   -338.73071   -69.153202   -36.794797   -358.80908   -69.408868   -37.619511   -338.40079   -69.069263   -27.875499   -358.62235   -69.299134   -28.147101            0            0            0    -341.7353   -69.378775   -58.982524 
 1001500    40.414702    6816.7562     7439.996    307.89919    724.34124   -338.70173   -69.221268   -36.790953   -358.86099   -69.426685   -37.624669   -338.37396   -69.091126     -27.9406   -358.63293   -69.394917   -28.160352            0            0            0   -341.76947   -69.385627   -58.984381 
 1001600    40.414702    8172.1255    7796.7407    1440.4892    708.38465    -338.7697   -69.255094   -36.811885   -358.86382   -69.437624   -37.646806   -338.35424    -69.13411   -28.029347   -358.64113   -69.395879   -28.156426            0            0            0   -341.80364    -69.39248   -58.986237 
 1001700    40.414702    7582.4436    7419.1016     1094.507    728.19469   -338.80234   -69.233455   -36.828105    -358.8428    -69.38092   -37.657591    -338.4239   -69.120926   -28.008824   -358.60957   -69.283034   -28.179361            0            0            0   -341.83781   -69.399332   -58.988094 
 1001800    40.414702    7427.6333    7153.8697   -0.7630317    723.40602   -338.76206   -69.270511   -36.864993    -358.9406   -69.433882   -37.663868   -338.38579   -69.231521   -27.987683   -358.72857    -69.33036   -28.215962            0            0            0   -341.87198   -69.406185    -58.98995 
 1001900    40.414702    6961.6386    6891.1663    16.964871    720.85115   -338.79064   -69.319391   -36.811266   -358.92672   -69.461307   -37.665757   -338.39441   -69.324697   -27.947919   -358.71925   -69.409212   -28.266981            0            0            0   -341.90615   -69.413037   -58.991807 
 1002000    40.414702    7793.9007     7516.817    443.60778    723.09166   -338.87937   -69.254326   -36.743624   -358.92142   -69.448447   -37.623841   -338.56077     -69.1734   -27.829768   -358.70359   -69.447284   -28.245147            0            0            0   -341.94032   -69.419889   -58.993663 
 1002100    40.414702     7152.945    6585.9176   -85.548275    728.94309   -338.87415   -69.260532   -36.747746    -359.0099   -69.447218   -37.616897   -338.53165   -69.249136   -27.839379   -358.80104    -69.50043   -28.120832            0            0            0   -341.97449   -69.426742   -58.995519 
 1002200    40.414702    7292.4104    6514.2518   -206.33705    709.78053   -338.92147   -69.326831   -36.761655   -359.00301   -69.516405   -37.617401   -338.57702   -69.312345   -27.893154   -358.81947    -69.62472   -28.117054            0            0            0   -342.00866   -69.433594   -58.997376 
 1002300    40.414702    6384.8792    5927.4563    -892.0704    726.70932   -338.97369   -69.304133    -36.78128   -359.04851   -69.476339   -37.577983   -338.70029   -69.309132   -27.985488   -358.88996    -69.57573   -28.107164            0            0            0   -342.04283   -69.440447   -58.999232 
 1002400    40.414702    5675.1104    5791.3364   -1040.1182    717.73485   -338.96687   -69.314723   -36.726511   -359.13285   -69.504522   -37.611605   -338.68583   -69.437574   -27.851445    -359.0043   -69.616685   -28.130067            0            0            0     -342.077   -69.447299   -59.001089 
 1002500    40.414702    6463.8594    6375.7207   -732.99029    714.40694   -339.05502   -69.364918   -36.743053   -359.17227   -69.591715   -37.519346   -338.80846   -69.474525    -27.81764   -359.02879   -69.625127   -28.018407            0            0            0   -342.11117   -69.454151   -59.002945 
 1002600    40.414702    5978.1868    6255.2679   -647.65512    735.05038   -339.14489   -69.365498   -36.709853   -359.18052   -69.538837   -37.542715   -338.87685   -69.381891   -27.877297   -359.04717     -69.5742   -28.104605            0            0            0   -342.14534   -69.461004   -59.004802 
 1002700    40.414702    6322.5898    6393.0541   -19.889788    718.98384   -339.13713   -69.362874   -36.678423   -359.25305   -69.522441   -37.626486   -338.80307   -69.378843   -27.783664   -359.10772   -69.618356   -28.206101            0            0            0   -342.17951   -69.467856   -59.006658 
 1002800    40.414702     6052.634    6410.5433   -465.00422    711.47384   -339.17387   -69.387427   -36.783856   -359.32528   -69.579053   -37.665134   -338.87707   -69.327911    -27.83474   -359.14867   -69.641728   -28.173126            0            0            0   -342.21368   -69.474709   -59.008514 
 1002900    40.414702    6319.0287    6610.6898   -787.11161    730.78289   -339.26049   -69.380664   -36.699122   -359.32936   -69.651125   -37.705651   -338.98972   -69.385485   -27.795218   -359.18196   -69.669879   -28.257644            0            0            0   -342.24785   -69.481561   -59.010371 
 1003000    40.414702    7323.5047    6796.9891    593.60288    711.51106   -339.32112   -69.331816    -36.71653    -359.3994    -69.60164   -37.654531   -339.04473   -69.375535   -27.889545   -359.25764   -69.614173   -28.215985            0            0            0   -342.28202   -69.488413   -59.012227 
 1003100    40.414702    6460.1423    7095.6732    842.87624    728.70372   -339.34304   -69.369706    -36.76438   -359.47241   -69.587931   -37.646038   -339.01348   -69.369184   -27.945716    -359.2752   -69.553554   -28.137219            0            0            0   -342.31619   -69.495266   -59.014084 
 1003200    40.414702    7557.4929    7028.9447    1281.2059    729.41494   -339.41034   -69.421145   -36.889804   -359.50991   -69.585313   -37.644563   -339.10439   -69.400212   -27.995814    -359.3193   -69.533421   -28.191943            0            0            0   -342.35036   -69.502118    -59.01594 
 1003300    40.414702    7198.8326    6393.6605    145.05624    714.81941   -339.45956   -69.401801   -36.827432   -359.57305     -69.6203   -37.621998   -339.09564   -69.343501   -27.989605   -359.40101   -69.599165   -28.245769            0            0            0   -342.38453   -69.508971   -59.017797 
 1003400    40.414702    7192.0094    6743.9136      424.264    719.89922   -339.46506   -69.404727   -36.759133   -359.64194   -69.614331   -37.639759    -339.1861   -69.324156   -27.909539   -359.47583   -69.559881   -28.165297            0            0            0    -342.4187   -69.515823   -59.019653 
 1003500    40.414702    7278.6221    6630.6813    575.24015    724.33776   -339.54963   -69.366715   -36.746794   -359.65868   -69.629629   -37.722575   -339.25254    -69.27026   -27.862263   -359.53522   -69.628346   -28.258792            0            0            0   -342.45287   -69.522675    -59.02151 
 1003600    40.414702    6681.0394    6363.7411    136.76879    726.36978    -339.5689   -69.404321   -36.705839   -359.65933   -69.643627   -37.693664   -339.28071   -69.333768   -27.881743   -359.55021   -69.632039   -28.233839            0            0            0   -342.48704   -69.529528   -59.023366 
 1003700    40.414702    6781.4911    6644.4813    -245.3836    706.82967    -339.6533   -69.436394   -36.720152   -359.72992   -69.639743   -37.680008   -339.39172   -69.413531   -27.804355   -359.63533   -69.679989   -28.234156            0            0            0   -342.52121    -69.53638   -59.025222 
 1003800    40.414702    6088.0877    6166.4657    -762.1582    723.21639   -339.66211       -69.46   -36.751912    -359.7164   -69.585034   -37.597479   -339.39072   -69.461945    -27.80406   -359.63819   -69.588557   -28.139102            0            0            0   -342.55538   -69.543233   -59.027079 
 1003900    40.414702    5897.5371    6166.0822   -1126.3346    722.03371   -339.69259   -69.495807   -36.793678   -359.76156    -69.57693   -37.541294   -339.42845   -69.524834   -27.901037   -359.67292    -69.61511   -28.060013            0            0            0   -342.58955   -69.550085   -59.028935 
 1004000    40.414702    6317.5107    6145.7423   -257.58992    724.52573   -339.67941   -69.459044   -36.914074   -359.84053    -69.59723   -37.558765    -339.4446    -69.50163   -28.047168   -359.74721   -69.624659   -28.076502            0            0            0   -342.62372   -69.556937   -59.030792 
 1004100    40.414702    6607.0081    6776.0443   -37.567355    723.51059   -339.71098   -69.444162   -36.859451    -359.8606   -69.662948   -37.549218   -339.48434   -69.410577   -28.010471   -359.80332   -69.751755   -28.041342            0            0            0   -342.65789    -69.56379   -59.032648 
 1004200    40.414702    6533.7734    6377.9279   -154.72144    726.49744    -339.7315   -69.417888   -36.823427    -359.8936   -69.664144   -37.565172   -339.48837   -69.456271   -27.998436   -359.80702   -69.785923   -28.081337            0            0            0   -342.69206   -69.570642   -59.034505 
 1004300    40.414702    6594.7913    6455.1735   -530.83087    726.39075   -339.75167   -69.434064    -36.77246   -359.85727   -69.634483   -37.636347   -339.48917   -69.484203   -27.931213    -359.7362   -69.694096   -28.189837            0            0            0   -342.72623   -69.577495   -59.036361 
 1004400    40.414702    6766.0989    6681.1372      154.544    711.16603   -339.79893   -69.446205   -36.722311   -359.89425   -69.651515   -37.751714   -339.50036   -69.481498   -27.841338    -359.7536   -69.629288   -28.281924            0            0            0    -342.7604   -69.584347   -59.038217 
 1004500    40.414702    6602.5466    6482.6022    110.83812     724.6048   -339.83142   -69.505342   -36.760235   -359.90936   -69.626713   -37.755672   -339.48782   -69.449929   -27.857898   -359.72118   -69.581896   -28.285826            0            0            0   -342.79457   -69.591199   -59.040074 
 1004600    40.414702    6098.4143    7042.0853    80.722027    735.91753   -339.78548   -69.511311   -36.739382   -359.94274   -69.620125    -37.72587   -339.43475   -69.439001   -27.864424   -359.75665   -69.571471   -28.314877            0            0            0   -342.82874   -69.598052    -59.04193 
 1004700    40.414702    7157.5315    7075.2219    342.02279    723.16646   -339.82659   -69.495129   -36.797024   -359.96563   -69.643266   -37.673222    -339.4601   -69.410686   -27.894254   -359.77196   -69.632532   -28.243696            0            0            0   -342.86291   -69.604904   -59.043787 
 1004800    40.414702    7132.5926    7116.5206    659.83596    722.36845   -339.81557   -69.476746   -36.848955   -359.95998    -69.70427   -37.648959    -339.3865   -69.415017   -27.953674   -359.77408   -69.663818   -28.172566            0            0            0   -342.89708   -69.611757   -59.045643 
 1004900    40.414702    6690.2845     6696.417    127.90163    725.73892   -339.83822   -69.429594   -36.923264    -360.0305   -69.714973   -37.657828   -339.46711   -69.445023   -28.080425    -359.7923   -69.702023   -28.173996            0            0            0   -342.93125   -69.618609     -59.0475 
 1005000    40.414702    6722.2821    7000.8655    48.199462    721.56047   -339.84834   -69.476377   -36.860041   -360.02554   -69.761116   -37.623599   -339.46433   -69.452147   -28.085605   -359.71748   -69.715079   -28.116363            0            0            0   -342.96542   -69.625461   -59.049356 
Loop time of 3106.42 on 8 procs for 1000000 steps with 3280 atoms

Pair  time (%) = 2179.37 (70.1569)
Neigh time (%) = 51.9382 (1.67196)
Comm  time (%) = 840.3 (27.0504)
Outpt time (%) = 0.967216 (0.031136)
Other time (%) = 33.8456 (1.08954)

Nlocal:    410 ave 680 max 0 min
Histogram: 2 0 0 0 2 0 0 0 0 4
Nghost:    1898.38 ave 3145 max 497 min
Histogram: 2 0 0 2 0 0 0 2 0 2
Neighs:    28162.4 ave 48400 max 0 min
Histogram: 2 0 0 0 2 0 0 0 2 2

Total # of neighbors = 225299
Ave neighs/atom = 68.6887
Neighbor list builds = 33039
Dangerous builds = 0



