LAMMPS data file via write_data, version 28 Jun 2014, timestep = 20000

3280 atoms
1 atom types

-2.0207351230257235e+01 2.0207351230257235e+01 xlo xhi
-8.0829404921028267e+00 8.0829404921028267e+00 ylo yhi
-1.2103629628089998e+02 2.0415162330899960e+01 zlo zhi

Masses

1 26.982

Atoms # atomic

2 1 -1.8160792597003923e+01 -6.0796201168719293e+00 -8.0695636388115460e+01 0 0 0
25 1 -1.5994326260935527e+01 -4.4240731938783906e+00 -8.1158666317010841e+01 0 0 0
8 1 -1.6117608519340418e+01 -6.1234563419890238e+00 -7.8748873272295072e+01 0 0 0
23 1 -1.8099282778306879e+01 -4.1509704009100856e+00 -7.8701217054681919e+01 0 0 0
5 1 -1.6167053062020585e+01 -7.9481729802880006e+00 -8.0879289449629539e+01 0 0 0
3 1 -1.8091895734444940e+01 7.9807081821416546e+00 -7.8701994263444107e+01 0 -1 0
6 1 -1.3921051513378632e+01 -6.0772851549692497e+00 -8.1043593239537742e+01 0 0 0
29 1 -1.2125368402299070e+01 -3.8352272695680103e+00 -8.0671755725435645e+01 0 0 0
12 1 -1.2047018898319138e+01 -6.1073895412815542e+00 -7.8800387938454193e+01 0 0 0
27 1 -1.4150064687238698e+01 -4.1888960295808459e+00 -7.8919305036736731e+01 0 0 0
10 1 -9.9501891010418380e+00 -5.9540090244322350e+00 -8.0886645871047492e+01 0 0 0
31 1 -1.0090793551915029e+01 -3.8427359930653671e+00 -7.8809539232123839e+01 0 0 0
7 1 -1.4065539896493831e+01 8.0159482204171635e+00 -7.8900652280656104e+01 0 -1 0
9 1 -1.1949607505475020e+01 -8.0602675794707324e+00 -8.0737258911793660e+01 0 0 0
14 1 -6.0493995321306180e+00 -5.9809297556523555e+00 -8.0979474379996176e+01 0 0 0
33 1 -8.1566819480050405e+00 -3.8227456436563223e+00 -8.0858916234811971e+01 0 0 0
35 1 -6.1012548903306767e+00 -3.9486040786627914e+00 -7.8779164062798344e+01 0 0 0
16 1 -8.0359517531288418e+00 -5.7667665359833862e+00 -7.8878558877789558e+01 0 0 0
13 1 -8.0417498054130565e+00 -8.0229783647288038e+00 -8.0804361455787713e+01 0 0 0
18 1 -2.0519912630554837e+00 -6.1408504043461907e+00 -8.0770316513157624e+01 0 0 0
37 1 -4.0696016310605598e+00 -3.9771774680923055e+00 -8.0795893797139968e+01 0 0 0
20 1 -4.1062376494256725e+00 -5.9716800395989340e+00 -7.8688138781837139e+01 0 0 0
39 1 -1.9806178105366361e+00 -3.9799678159326328e+00 -7.8634266945164413e+01 0 0 0
1644 1 -1.1738897726848158e-02 -6.0715284991746694e+00 -7.8654244393832172e+01 0 0 0
19 1 -1.9975715695568073e+00 -8.0248014610823759e+00 -7.8719171691323325e+01 0 0 0
17 1 -4.0022813862041025e+00 8.0820169563755844e+00 -8.0586892139319460e+01 0 -1 0
1661 1 -1.1352300459151264e-01 -4.1685604147371054e+00 -8.0770188434633852e+01 0 0 0
22 1 -1.8006381496276450e+01 -2.1437458499449953e+00 -8.0590190892904815e+01 0 0 0
42 1 -1.8079836226008695e+01 2.0275065677247661e+00 -8.0827383312966177e+01 0 0 0
45 1 -1.6144430389529230e+01 -4.3938823441256381e-02 -8.0683636038615489e+01 0 0 0
28 1 -1.6040805420015918e+01 -2.0376178978801849e+00 -7.8754613022480441e+01 0 0 0
43 1 -1.8156400914213972e+01 1.0387810973249434e-01 -7.8688056004860158e+01 0 0 0
48 1 -1.6189622587255933e+01 2.0181663851653062e+00 -7.8633883421461761e+01 0 0 0
26 1 -1.4076599950354776e+01 -1.9435593730830973e+00 -8.0781613339350798e+01 0 0 0
46 1 -1.4315178189757040e+01 2.0900709983942285e+00 -8.0573281639340252e+01 0 0 0
49 1 -1.2170130160664206e+01 2.7057058828724562e-01 -8.0975568096912880e+01 0 0 0
32 1 -1.2219180454820199e+01 -2.0070563034962077e+00 -7.8751507078954802e+01 0 0 0
52 1 -1.2158525503571184e+01 2.1297733780262464e+00 -7.8836115935217279e+01 0 0 0
47 1 -1.4066577169580608e+01 2.1660361635867689e-01 -7.8844099118876301e+01 0 0 0
30 1 -1.0205314335518541e+01 -1.8292169540114858e+00 -8.0883047839812861e+01 0 0 0
51 1 -1.0034335978577422e+01 1.2967923447718085e-01 -7.8913602254714050e+01 0 0 0
50 1 -1.0163025788495544e+01 2.2563312050622852e+00 -8.0912972567648112e+01 0 0 0
34 1 -6.2873085692420849e+00 -1.9196812476018481e+00 -8.0851012945574908e+01 0 0 0
53 1 -8.0838575330310061e+00 1.4881816407068837e-01 -8.0902854759790969e+01 0 0 0
54 1 -6.0794298304090342e+00 2.1961882618369719e+00 -8.0841417833408130e+01 0 0 0
36 1 -8.2485896167648853e+00 -1.9116390373672476e+00 -7.8883700193215688e+01 0 0 0
56 1 -7.9533059985239163e+00 2.1709005373651769e+00 -7.9070767399439532e+01 0 0 0
55 1 -6.1687128880778630e+00 2.2073325284460026e-02 -7.8944984805411764e+01 0 0 0
38 1 -1.8903309350998803e+00 -2.0923055505688142e+00 -8.0628290066036541e+01 0 0 0
57 1 -4.0023344657981319e+00 2.0248794519667038e-01 -8.0933176162727321e+01 0 0 0
58 1 -1.8026117570194244e+00 2.0868192893273450e+00 -8.0974870179701426e+01 0 0 0
59 1 -2.1204529134621484e+00 1.1076477735196884e-01 -7.8870192559323229e+01 0 0 0
40 1 -4.1202943124401878e+00 -1.9046362975985156e+00 -7.8791213061975498e+01 0 0 0
60 1 -4.0758092836780042e+00 2.0842663814311702e+00 -7.8894175407553618e+01 0 0 0
257 1 -4.0483794538805711e+00 8.0677691828768694e+00 -6.8694766667065352e+01 0 -1 0
1684 1 -4.3143800198423815e-02 2.1476082258327809e+00 -7.8788092413826590e+01 0 0 0
1664 1 -1.1138438557326012e-02 -2.0561065202475328e+00 -7.8664305118257403e+01 0 0 0
62 1 -1.8098769494156464e+01 6.0940404836921509e+00 -8.0534538612082883e+01 0 0 0
65 1 -1.6152026717577481e+01 4.1921693264721807e+00 -8.0657393151294954e+01 0 0 0
63 1 -1.8172354843541640e+01 3.9975329142186657e+00 -7.8471924034864671e+01 0 0 0
68 1 -1.6120756141536067e+01 6.1023488893850750e+00 -7.8615242981252962e+01 0 0 0
259 1 -1.9925834327492291e+00 8.0230464358263660e+00 -6.6498364723264174e+01 0 -1 0
11 1 -9.9220405300419401e+00 -8.0311197852242984e+00 -7.8711084206911991e+01 0 0 0
66 1 -1.4160813556995093e+01 6.0765480520568671e+00 -8.0793193708286282e+01 0 0 0
69 1 -1.2290260233798014e+01 4.0456075749265050e+00 -8.0796144984451558e+01 0 0 0
67 1 -1.4078450722207942e+01 4.1234718740078371e+00 -7.8656652959020249e+01 0 0 0
72 1 -1.2001314094081142e+01 6.0302013536567545e+00 -7.8795752612215409e+01 0 0 0
71 1 -9.8776104077856761e+00 4.1481374165490710e+00 -7.8835649723668197e+01 0 0 0
70 1 -1.0218138054682965e+01 6.0786422320791047e+00 -8.0866446974717107e+01 0 0 0
15 1 -6.1394978808318301e+00 -7.9110885741214467e+00 -7.8866802749960172e+01 0 0 0
73 1 -7.8968816079420394e+00 4.2610847564576906e+00 -8.0766863367430929e+01 0 0 0
74 1 -5.8851544826850146e+00 6.1924172058882343e+00 -8.0696085112805520e+01 0 0 0
75 1 -5.8623171791156192e+00 4.2401114944019298e+00 -7.8792521745087953e+01 0 0 0
76 1 -8.0618604220498522e+00 6.2170635437537154e+00 -7.8708161283147362e+01 0 0 0
1881 1 -1.6818495454068860e-01 -8.0077238644260618e+00 -6.8585525272712374e+01 0 0 0
77 1 -3.9445673709726701e+00 4.0548849538746365e+00 -8.0842945464073779e+01 0 0 0
78 1 -1.9715036416662277e+00 6.2000571360546237e+00 -8.0892260905977054e+01 0 0 0
80 1 -3.8585813167020606e+00 6.0247713987527645e+00 -7.8749668634559711e+01 0 0 0
79 1 -2.0045326410857909e+00 4.0450321189357519e+00 -7.8872652265281317e+01 0 0 0
1704 1 -3.4153328473463390e-02 6.1005722587015674e+00 -7.8709850406369398e+01 0 0 0
1701 1 -3.3432233743132436e-02 4.1905677945051103e+00 -8.0742598626173191e+01 0 0 0
82 1 -1.8211047563884406e+01 -6.0192229090188407e+00 -7.6770405864687589e+01 0 0 0
88 1 -1.5990773063258239e+01 -6.1397711743245118e+00 -7.4798827830156739e+01 0 0 0
103 1 -1.8217510076411710e+01 -4.1844539407079022e+00 -7.4656977282717861e+01 0 0 0
105 1 -1.6222330865999094e+01 -4.0466150319911938e+00 -7.6670524146457268e+01 0 0 0
83 1 -1.8012009348322959e+01 -8.0698946585195230e+00 -7.4727980570670610e+01 0 0 0
81 1 -1.9940453962621525e+01 -8.0382350615829257e+00 -7.6585456659130600e+01 0 0 0
86 1 -1.4185536423614380e+01 -6.0626964501482599e+00 -7.6679020909613683e+01 0 0 0
92 1 -1.2183282565037443e+01 -6.0819270846408893e+00 -7.4600304245358060e+01 0 0 0
107 1 -1.4231204846155606e+01 -4.0215741524565143e+00 -7.4627428761780394e+01 0 0 0
109 1 -1.2187022643526173e+01 -4.1634771551077829e+00 -7.6874305445881859e+01 0 0 0
90 1 -1.0028361171424336e+01 -6.0463524403094189e+00 -7.6734356227131073e+01 0 0 0
87 1 -1.4035114804916637e+01 -8.0703305734484925e+00 -7.4612603154537254e+01 0 0 0
111 1 -1.0216408710969114e+01 -3.8573978153449326e+00 -7.4842952268001213e+01 0 0 0
94 1 -6.0688423475367115e+00 -5.9899333298563064e+00 -7.6798204339804684e+01 0 0 0
96 1 -8.2180154449863618e+00 -6.0153308258627254e+00 -7.4571899287087305e+01 0 0 0
113 1 -7.9370303041013086e+00 -3.8659408014132666e+00 -7.6797965299023460e+01 0 0 0
115 1 -6.0458257769330839e+00 -4.0365825282967682e+00 -7.4749187140245851e+01 0 0 0
98 1 -1.9841470856072323e+00 -5.9138416956156448e+00 -7.6648907135172124e+01 0 0 0
100 1 -4.1407976523188958e+00 -6.0682601174263668e+00 -7.4867730891413984e+01 0 0 0
117 1 -3.9808966666414785e+00 -3.9429572350201614e+00 -7.6853150408190828e+01 0 0 0
119 1 -2.1086240739438837e+00 -3.9563291700139001e+00 -7.4737767664092942e+01 0 0 0
1741 1 -1.5641538411276329e-01 -3.9578330487594711e+00 -7.6524336094853936e+01 0 0 0
1944 1 -3.8982880805957153e-02 6.0956431874696637e+00 -6.6627757988573336e+01 0 0 0
99 1 -2.2401927305462204e+00 -8.0064350593686324e+00 -7.4678135618261962e+01 0 0 0
102 1 -1.8166682706008668e+01 -1.9343463004324657e+00 -7.6731594601423140e+01 0 0 0
108 1 -1.6093130293125846e+01 -1.8431088808816631e+00 -7.4695011809992906e+01 0 0 0
122 1 -1.8071209165419909e+01 1.9747629298148170e+00 -7.6649985003264831e+01 0 0 0
123 1 -1.8220926274577970e+01 5.5469479378599550e-02 -7.4647124210439912e+01 0 0 0
125 1 -1.6063782197956858e+01 -1.3244026737337794e-01 -7.6859976652328882e+01 0 0 0
128 1 -1.5997203168231145e+01 2.0380473698145356e+00 -7.4684651490424471e+01 0 0 0
104 1 -2.0091628058120037e+01 -1.9471473134867570e+00 -7.4722700180430920e+01 0 0 0
106 1 -1.4084714916841463e+01 -2.1211688682409595e+00 -7.6657644787906548e+01 0 0 0
112 1 -1.2075156783344257e+01 -1.8993771462295772e+00 -7.4722028643826860e+01 0 0 0
126 1 -1.4000804153260290e+01 2.0120737195939009e+00 -7.6579025620580850e+01 0 0 0
127 1 -1.4026588916480867e+01 7.3933451024047386e-02 -7.4634045415182484e+01 0 0 0
129 1 -1.2134485023148285e+01 6.4635504759074300e-02 -7.6810776219823254e+01 0 0 0
132 1 -1.1938342963125296e+01 2.1216546050095864e+00 -7.4733779482264552e+01 0 0 0
131 1 -1.0010782778110025e+01 -2.9729093334870286e-02 -7.4994322638900698e+01 0 0 0
130 1 -9.9764954795836811e+00 2.1612534180660239e+00 -7.6815992412772914e+01 0 0 0
110 1 -1.0198350693781840e+01 -1.8995406755910977e+00 -7.6857138839331355e+01 0 0 0
114 1 -6.1066434751876422e+00 -1.9646704699703090e+00 -7.6945991553236709e+01 0 0 0
116 1 -8.0573719665110879e+00 -2.0599487437600179e+00 -7.4750632923382398e+01 0 0 0
133 1 -8.0441121376802460e+00 9.0186829423379480e-02 -7.6897813505821020e+01 0 0 0
134 1 -6.1798258028987512e+00 2.0400406218909657e+00 -7.6910833623585617e+01 0 0 0
135 1 -6.2647249131820510e+00 -3.6804665200927830e-02 -7.4634207472495731e+01 0 0 0
136 1 -8.0318309480542389e+00 2.1203798019410085e+00 -7.4846352453590768e+01 0 0 0
118 1 -2.2338709595888222e+00 -1.8421178756948109e+00 -7.6872593654569386e+01 0 0 0
120 1 -4.1901151818236579e+00 -1.9893854186699667e+00 -7.4575083517161488e+01 0 0 0
137 1 -4.1091234403297889e+00 5.4779080419514459e-02 -7.6937074884487259e+01 0 0 0
138 1 -2.2242307349423500e+00 2.0416171589790784e+00 -7.6796830466393601e+01 0 0 0
139 1 -2.2070577481621507e+00 -3.6917815271467438e-02 -7.4691740119910975e+01 0 0 0
140 1 -4.2217642185474933e+00 1.8826232510125316e+00 -7.4741132868383076e+01 0 0 0
1764 1 -3.6379299380168359e-02 2.0497950242928016e+00 -7.4774297543015166e+01 0 0 0
1761 1 -1.5419541117021054e-01 4.1873101370685173e-02 -7.6844349926988073e+01 0 0 0
1744 1 -9.6030322481404376e-02 -1.8206407295882368e+00 -7.4660858729042417e+01 0 0 0
85 1 -1.5974017705845190e+01 7.9986583171974264e+00 -7.6661720927345257e+01 0 -1 0
142 1 -1.8096581479266771e+01 5.8954567392136452e+00 -7.6635477953046276e+01 0 0 0
143 1 -1.8004620254109348e+01 4.0427468563534656e+00 -7.4632974484637060e+01 0 0 0
145 1 -1.6035739689020239e+01 4.0606562633442191e+00 -7.6732797856378298e+01 0 0 0
148 1 -1.6076384981515414e+01 6.0551147671989085e+00 -7.4599596621548457e+01 0 0 0
89 1 -1.2021690635629692e+01 -7.8958677739511547e+00 -7.6790869181045579e+01 0 0 0
91 1 -1.0221683675124520e+01 8.0349982371036646e+00 -7.4783698160339540e+01 0 -1 0
146 1 -1.3930737990972661e+01 6.0882201369701496e+00 -7.6610795204702058e+01 0 0 0
147 1 -1.3925730477605621e+01 4.1781115768218928e+00 -7.4622384054585069e+01 0 0 0
149 1 -1.1923762249199486e+01 3.9825098150235849e+00 -7.6743417794720060e+01 0 0 0
152 1 -1.2018334957519127e+01 6.0755718294807224e+00 -7.4472428701820661e+01 0 0 0
150 1 -1.0064081282883468e+01 6.0588844923163316e+00 -7.6655394414332122e+01 0 0 0
151 1 -1.0088108015757278e+01 4.0942408862317166e+00 -7.4673555411813723e+01 0 0 0
95 1 -5.9895585970119107e+00 8.0006010157811289e+00 -7.4544033856397107e+01 0 -1 0
93 1 -8.0514296360170743e+00 -7.8604236482272025e+00 -7.6599798284563533e+01 0 0 0
153 1 -8.0112456220114918e+00 4.3256023381231667e+00 -7.6569440570545751e+01 0 0 0
154 1 -5.9653923886114386e+00 6.1205204995082676e+00 -7.6837578871818977e+01 0 0 0
155 1 -6.0127142498379200e+00 4.0189689196927709e+00 -7.4785974683969428e+01 0 0 0
156 1 -8.0569025048889831e+00 6.1529592184132342e+00 -7.4671869678880327e+01 0 0 0
1721 1 -8.7243286669222320e-02 -7.9802544865901588e+00 -7.6573009298729389e+01 0 0 0
97 1 -4.1050424823249152e+00 -7.9757908143417620e+00 -7.6708918581150783e+01 0 0 0
157 1 -4.0505543258130619e+00 4.1470877535822250e+00 -7.6807886233980611e+01 0 0 0
158 1 -2.0983281828157074e+00 6.0995836337521681e+00 -7.6649010892811873e+01 0 0 0
159 1 -2.0084542070800020e+00 4.0582278124818973e+00 -7.4814550832425724e+01 0 0 0
160 1 -4.2186138717497474e+00 6.0456293318014556e+00 -7.4570479294786722e+01 0 0 0
1784 1 -4.5535845318870498e-02 6.1302034119067494e+00 -7.4681459480756700e+01 0 0 0
1781 1 -1.8720617156296866e-02 4.0105459455732033e+00 -7.6726286410391722e+01 0 0 0
162 1 -1.8286296337053159e+01 -6.1737123772029854e+00 -7.2726674583978948e+01 0 0 0
168 1 -1.6203353595398838e+01 -6.0272482641503906e+00 -7.0498734538641031e+01 0 0 0
183 1 -1.8205449188568284e+01 -4.1986522259559926e+00 -7.0724179063768403e+01 0 0 0
185 1 -1.6261080338004565e+01 -4.2285699189183594e+00 -7.2848397544750654e+01 0 0 0
166 1 -1.4141041813608382e+01 -6.0284370327134855e+00 -7.2586568319321700e+01 0 0 0
172 1 -1.2018887684107044e+01 -6.0568395841126836e+00 -7.0603369852299807e+01 0 0 0
187 1 -1.4244381290160842e+01 -3.9694785358150497e+00 -7.0669673519186162e+01 0 0 0
189 1 -1.2221961433796938e+01 -4.0813425010577884e+00 -7.2664264523264166e+01 0 0 0
191 1 -1.0039401064935923e+01 -3.9447389239536403e+00 -7.0445805300343309e+01 0 0 0
170 1 -1.0157925716328856e+01 -6.1303444769145488e+00 -7.2695721371251850e+01 0 0 0
174 1 -6.1455425117286753e+00 -6.0614300061991333e+00 -7.2682373877275538e+01 0 0 0
176 1 -8.1661500632518056e+00 -6.0519330917275393e+00 -7.0700108760421614e+01 0 0 0
193 1 -8.1685200616584854e+00 -4.0130853434675213e+00 -7.2602753876270668e+01 0 0 0
195 1 -5.9824722760257902e+00 -3.9262450279317704e+00 -7.0624039547490554e+01 0 0 0
173 1 -8.1603146196902614e+00 7.9945484743929249e+00 -7.2599318029086319e+01 0 -1 0
178 1 -2.0058602738473037e+00 -6.0669718570681725e+00 -7.2745255085124100e+01 0 0 0
180 1 -4.1074641421191638e+00 -6.1353677330004430e+00 -7.0595215711118286e+01 0 0 0
197 1 -4.0072473441669141e+00 -4.0290582609797019e+00 -7.2777640062451809e+01 0 0 0
199 1 -2.1069270156793927e+00 -4.1140665724939804e+00 -7.0545085693513926e+01 0 0 0
1804 1 -1.8157767430696362e-01 -5.9668020487320179e+00 -7.0417483983975359e+01 0 0 0
317 1 -4.0590127752086520e+00 4.1894086729621973e+00 -6.8294576365626483e+01 0 0 0
182 1 -1.8018983835109164e+01 -2.0905904888865607e+00 -7.2664372436166403e+01 0 0 0
188 1 -1.6157224817395349e+01 -1.9388933353080999e+00 -7.0719502723782696e+01 0 0 0
202 1 -1.8265228699791408e+01 2.0496181572158578e+00 -7.2659899655902166e+01 0 0 0
203 1 -1.8089419416304310e+01 4.4422028175347496e-02 -7.0651886921163523e+01 0 0 0
205 1 -1.6127972743371451e+01 -9.8217482654968866e-02 -7.2550249026821319e+01 0 0 0
208 1 -1.6131188279955769e+01 1.9574810672182101e+00 -7.0745214783773392e+01 0 0 0
184 1 -2.0093153966389217e+01 -1.8846811229499738e+00 -7.0749658957707084e+01 0 0 0
186 1 -1.4002244937781251e+01 -2.0224345172714733e+00 -7.2620689778017194e+01 0 0 0
192 1 -1.2093583470610092e+01 -2.2156807451449985e+00 -7.0634487817011546e+01 0 0 0
206 1 -1.4099718249388822e+01 1.9689453264812595e+00 -7.2610970752060837e+01 0 0 0
207 1 -1.4058843389452207e+01 -1.6901314863594843e-01 -7.0680830125503121e+01 0 0 0
209 1 -1.2054737888357963e+01 2.5326212688774219e-02 -7.2641481714351357e+01 0 0 0
212 1 -1.2097705344491922e+01 1.8018095848414901e+00 -7.0592076053821145e+01 0 0 0
210 1 -1.0068975499675712e+01 2.0376634045502104e+00 -7.2616202658751178e+01 0 0 0
190 1 -1.0075115942483441e+01 -2.0034774559986941e+00 -7.2674347501727127e+01 0 0 0
211 1 -1.0190081369194383e+01 -2.1072428865458093e-01 -7.0616643640562856e+01 0 0 0
194 1 -6.0994081564282174e+00 -1.8771257602563205e+00 -7.2605125782881018e+01 0 0 0
196 1 -8.0210573282328905e+00 -2.0332659808299884e+00 -7.0694578915411327e+01 0 0 0
213 1 -8.2042560570814764e+00 1.6619122426832977e-01 -7.2720832381532631e+01 0 0 0
214 1 -6.0321437977399013e+00 1.9461727283924786e+00 -7.2744191693809796e+01 0 0 0
215 1 -6.0521797830596009e+00 7.7387174037295461e-02 -7.0598136827236431e+01 0 0 0
216 1 -8.1766253782502716e+00 1.9551666506934113e+00 -7.0570254076923604e+01 0 0 0
198 1 -2.1085528789874619e+00 -1.8630431864587582e+00 -7.2721995498388978e+01 0 0 0
200 1 -4.0462733324837794e+00 -2.0637344364145274e+00 -7.0793987453645343e+01 0 0 0
217 1 -4.0710820708192514e+00 2.6623754512846809e-01 -7.2725526475816835e+01 0 0 0
218 1 -2.2320180042438564e+00 2.1155053511986006e+00 -7.2874446365236565e+01 0 0 0
219 1 -2.1027666344947664e+00 4.5967063518833354e-02 -7.0554480505956505e+01 0 0 0
220 1 -3.9756310969463531e+00 2.1798108601918944e+00 -7.0705934925946025e+01 0 0 0
318 1 -2.1159244606975207e+00 6.1184949060096692e+00 -6.8641007896612166e+01 0 0 0
1824 1 -1.0005798185779444e-02 -2.0533612262370537e+00 -7.0563518507808453e+01 0 0 0
165 1 -1.6072001508696815e+01 -7.9702139513284020e+00 -7.2490720060570510e+01 0 0 0
163 1 -1.8062819244212339e+01 8.0483076056081924e+00 -7.0449440310090850e+01 0 -1 0
222 1 -1.8286840255147286e+01 6.1579290652349883e+00 -7.2721487521039066e+01 0 0 0
223 1 -1.8190582601391583e+01 3.9539756039122298e+00 -7.0573413352777607e+01 0 0 0
225 1 -1.6209027549382427e+01 4.0173567313745071e+00 -7.2676336316706099e+01 0 0 0
228 1 -1.6217029630910570e+01 6.0297194432046455e+00 -7.0564820229093229e+01 0 0 0
169 1 -1.2114610355318828e+01 8.0820633785644080e+00 -7.2601474979849328e+01 0 -1 0
167 1 -1.4130891728413214e+01 -7.9488208628474659e+00 -7.0512615707866246e+01 0 0 0
226 1 -1.4169049347723925e+01 6.2420548141853427e+00 -7.2621898961599967e+01 0 0 0
227 1 -1.4243431757319714e+01 4.1147628829633547e+00 -7.0661614850660911e+01 0 0 0
229 1 -1.2163510408368300e+01 3.9970603200059913e+00 -7.2473375324493105e+01 0 0 0
232 1 -1.2055377647134437e+01 5.9249309711694700e+00 -7.0612619349920024e+01 0 0 0
171 1 -1.0063410385242232e+01 -8.0567220716929686e+00 -7.0519006787635746e+01 0 0 0
175 1 -6.0415296576055511e+00 8.0745446766616276e+00 -7.0660196822472543e+01 0 -1 0
230 1 -1.0066320314876481e+01 6.1345737623950161e+00 -7.2484053565357570e+01 0 0 0
231 1 -9.9605373422738825e+00 3.9975398972512997e+00 -7.0507936647597461e+01 0 0 0
233 1 -8.1216477056569829e+00 3.9584188308145394e+00 -7.2715018135778450e+01 0 0 0
234 1 -6.1472111170124153e+00 6.0063288876120815e+00 -7.2595996860598987e+01 0 0 0
235 1 -6.0373764355351360e+00 3.9767204991005483e+00 -7.0630939630404129e+01 0 0 0
236 1 -8.1061628046540051e+00 5.9467677199326374e+00 -7.0669910556479408e+01 0 0 0
177 1 -4.1056986850547439e+00 8.0553580755238823e+00 -7.2568650626316227e+01 0 -1 0
179 1 -1.9578812100996061e+00 -7.9330042607633544e+00 -7.0759545478307459e+01 0 0 0
237 1 -4.1382793430009892e+00 4.0402461844356665e+00 -7.2689710784106197e+01 0 0 0
238 1 -2.1185524912297438e+00 6.0282789736076730e+00 -7.2534984916666772e+01 0 0 0
239 1 -1.9706336499319510e+00 4.0657179433907240e+00 -7.0621037294176958e+01 0 0 0
240 1 -4.2792000285337819e+00 5.9803177687125491e+00 -7.0702893456512186e+01 0 0 0
1801 1 -8.7851008560003552e-02 -8.0662374347425629e+00 -7.2791740127021896e+01 0 0 0
1864 1 -4.7852127835162551e-02 6.1618141717763280e+00 -7.0608670002187509e+01 0 0 0
242 1 -1.8052001987431915e+01 -6.0511796041257693e+00 -6.8498334728650107e+01 0 0 0
248 1 -1.6205096374514127e+01 -5.9657812490194146e+00 -6.6551741120323840e+01 0 0 0
263 1 -1.8421350928429913e+01 -3.8775744709614939e+00 -6.6696887644597865e+01 0 0 0
265 1 -1.6191961673821396e+01 -3.9685178730186115e+00 -6.8424779074537724e+01 0 0 0
345 1 -1.5956942021019616e+01 -3.8072063720573555e+00 -6.4509023444002125e+01 0 0 0
243 1 -1.8170864438390144e+01 8.0320444303130394e+00 -6.6561478362006497e+01 0 -1 0
261 1 -2.0153337168438991e+01 -3.9856493690783013e+00 -6.8623379563841411e+01 0 0 0
322 1 -1.8112375659153372e+01 -5.9261618565441134e+00 -6.4652458907414427e+01 0 0 0
319 1 -1.8204680997423235e+00 4.2393833889201886e+00 -6.6509143683362680e+01 0 0 0
245 1 -1.5987427014569002e+01 7.9302889708140771e+00 -6.8497662934302937e+01 0 -1 0
320 1 -4.0819008136655146e+00 6.2268216809019918e+00 -6.6417146040326458e+01 0 0 0
241 1 -2.0130382151208885e+01 -8.0342502687379973e+00 -6.8555882887725659e+01 0 0 0
246 1 -1.4124560444069477e+01 -6.1056666027830451e+00 -6.8495447193169312e+01 0 0 0
252 1 -1.2145684142576524e+01 -6.1449553356139894e+00 -6.6483375613830219e+01 0 0 0
267 1 -1.4157622681292844e+01 -3.9659719482002456e+00 -6.6615285563550074e+01 0 0 0
269 1 -1.2129561161726476e+01 -4.0662794958018011e+00 -6.8593795303330168e+01 0 0 0
284 1 -1.9918198021563470e+01 1.9845039057733587e+00 -6.6571874829085615e+01 0 0 0
326 1 -1.4206996352032593e+01 -5.8711381017380742e+00 -6.4518809950932720e+01 0 0 0
271 1 -1.0154725062622020e+01 -3.9864896059384618e+00 -6.6466936895550617e+01 0 0 0
330 1 -1.0092441963024550e+01 -5.8704651987617380e+00 -6.4561238898509799e+01 0 0 0
250 1 -1.0179472557926495e+01 -5.9107041580599242e+00 -6.8504523366447415e+01 0 0 0
254 1 -6.0246339171953567e+00 -6.0962514202665785e+00 -6.8607813208166846e+01 0 0 0
256 1 -8.1011164029816491e+00 -5.9385564412232927e+00 -6.6583123138319920e+01 0 0 0
273 1 -8.0566410221618305e+00 -3.9836351534809236e+00 -6.8517845972703697e+01 0 0 0
275 1 -6.0236740101022752e+00 -3.9826610601723460e+00 -6.6571778692277405e+01 0 0 0
353 1 -8.0191012696688730e+00 -3.9394363954368234e+00 -6.4613134349729208e+01 0 0 0
397 1 -3.8976506855626107e+00 4.0330172555732791e+00 -6.4688147797199036e+01 0 0 0
258 1 -2.1194540997469047e+00 -6.1469435752921768e+00 -6.8462536243304740e+01 0 0 0
260 1 -3.9983055263936831e+00 -6.0286232314843344e+00 -6.6454471791441492e+01 0 0 0
277 1 -4.0620960598992601e+00 -4.0676617442496710e+00 -6.8566495177212190e+01 0 0 0
279 1 -2.0247108770417270e+00 -4.0248483368878496e+00 -6.6520498960730421e+01 0 0 0
338 1 -2.0081386496106988e+00 -6.2311701686123824e+00 -6.4614341209827344e+01 0 0 0
357 1 -4.1592013543482409e+00 -4.0167814801517361e+00 -6.4512087928750091e+01 0 0 0
1901 1 -3.5018298070996857e-02 -3.9322108371032107e+00 -6.8504579357893192e+01 0 0 0
310 1 -9.9851315859120255e+00 6.0244122961464681e+00 -6.8523550884734348e+01 0 0 0
262 1 -1.8265302277269065e+01 -2.1442203313726047e+00 -6.8654912034718834e+01 0 0 0
268 1 -1.6096145351479855e+01 -1.9327948679214819e+00 -6.6532734890839365e+01 0 0 0
282 1 -1.8035811867869086e+01 2.1269734653110173e+00 -6.8569024407592025e+01 0 0 0
283 1 -1.8069053251759723e+01 1.3510191996242837e-01 -6.6381615094336595e+01 0 0 0
285 1 -1.6361422174559248e+01 -1.6295700961377232e-01 -6.8607489495749277e+01 0 0 0
288 1 -1.6063094277209618e+01 2.0819344407846350e+00 -6.6559397993235933e+01 0 0 0
342 1 -1.8299484631283182e+01 -2.0059176174835454e+00 -6.4552985770201090e+01 0 0 0
365 1 -1.5997846000011139e+01 4.7007487964342759e-02 -6.4538280599934907e+01 0 0 0
362 1 -1.8010768167516169e+01 2.1520139829512113e+00 -6.4566727590167631e+01 0 0 0
361 1 -2.0093985813928434e+01 1.1425407738289223e-01 -6.4541242423471331e+01 0 0 0
313 1 -8.0377625843672895e+00 3.9545033215505980e+00 -6.8600046640867163e+01 0 0 0
369 1 -1.2036570392751493e+01 -7.1870019018222597e-02 -6.4618108279912690e+01 0 0 0
266 1 -1.4176255072669246e+01 -2.0091209573653117e+00 -6.8619645379030956e+01 0 0 0
272 1 -1.2109710153017073e+01 -2.0057619039787298e+00 -6.6526426618962262e+01 0 0 0
286 1 -1.4224715768356692e+01 1.8532548078621622e+00 -6.8641546119680086e+01 0 0 0
287 1 -1.4123425352708558e+01 -3.3773248891442162e-02 -6.6683451571883751e+01 0 0 0
289 1 -1.1979626363190434e+01 -8.8827208208966113e-02 -6.8528086995233977e+01 0 0 0
292 1 -1.1990114136281106e+01 1.9876818716283471e+00 -6.6567454779180736e+01 0 0 0
281 1 -2.0119728924779544e+01 7.6772084459954038e-02 -6.8549802341150510e+01 0 0 0
366 1 -1.3944563257466605e+01 1.9787127635194630e+00 -6.4473011567351108e+01 0 0 0
350 1 -1.0161300031916525e+01 -2.0680391543546106e+00 -6.4517283873853373e+01 0 0 0
291 1 -9.9921181532437764e+00 1.0486182700977540e-02 -6.6553769361519386e+01 0 0 0
370 1 -1.0029408202451842e+01 2.0361133138205805e+00 -6.4569008629195551e+01 0 0 0
290 1 -1.0164309999486534e+01 2.0550150618163414e+00 -6.8518802806437819e+01 0 0 0
270 1 -1.0077082318933101e+01 -2.0307689076475004e+00 -6.8486315629198543e+01 0 0 0
274 1 -5.9715818825090983e+00 -1.9868153618756674e+00 -6.8738403143361964e+01 0 0 0
276 1 -8.0366168003828005e+00 -1.8985405268031943e+00 -6.6567328063079984e+01 0 0 0
293 1 -8.0257715760431871e+00 -1.6176023874685280e-02 -6.8550110559990131e+01 0 0 0
294 1 -6.0022258309620273e+00 1.9479772727995195e+00 -6.8668520237031160e+01 0 0 0
295 1 -5.9241286384518030e+00 -7.4224567603826674e-02 -6.6696639925129674e+01 0 0 0
296 1 -7.9878308167509058e+00 2.0086221030699032e+00 -6.6599757716092327e+01 0 0 0
354 1 -6.1391982651070318e+00 -1.9113833359335626e+00 -6.4586801604264522e+01 0 0 0
373 1 -8.1595230035864219e+00 1.3524349478263317e-01 -6.4583136191731512e+01 0 0 0
300 1 -3.7883796145989939e+00 2.1384342829895182e+00 -6.6683052610706412e+01 0 0 0
299 1 -2.0466130063678172e+00 8.1535810082763546e-02 -6.6584752952172593e+01 0 0 0
278 1 -2.0567451425237655e+00 -1.9422335570274771e+00 -6.8468043715616844e+01 0 0 0
280 1 -4.0433386803405114e+00 -2.0581921817555298e+00 -6.6746876795591604e+01 0 0 0
297 1 -3.9158648727838350e+00 5.2192279658488008e-02 -6.8644530421536786e+01 0 0 0
298 1 -1.9387010765555250e+00 2.2815558387563404e+00 -6.8731294699040959e+01 0 0 0
316 1 -8.1313139453135257e+00 6.1465294563249877e+00 -6.6451880839416589e+01 0 0 0
358 1 -2.0096818052918675e+00 -1.9693067114274259e+00 -6.4611834815708946e+01 0 0 0
1924 1 -4.1597048037496837e-02 1.9872412952438863e+00 -6.6618579323829877e+01 0 0 0
315 1 -6.1768800535747728e+00 3.9119063693972147e+00 -6.6623832116431117e+01 0 0 0
325 1 -1.6222947463980628e+01 -7.9279825929927377e+00 -6.4494351973875240e+01 0 0 0
308 1 -1.6227190976511903e+01 6.0297213956022491e+00 -6.6412185833437874e+01 0 0 0
302 1 -1.8177237722302738e+01 6.1876289986120829e+00 -6.8498098893772237e+01 0 0 0
305 1 -1.6019348404754076e+01 4.1471530633680551e+00 -6.8548883936952507e+01 0 0 0
303 1 -1.8028293556255200e+01 4.0119221862477019e+00 -6.6534861579050414e+01 0 0 0
385 1 -1.6050282069577914e+01 3.9226022683702708e+00 -6.4532092128786772e+01 0 0 0
301 1 -2.0172214235810781e+01 4.1262174564401990e+00 -6.8701856634906477e+01 0 0 0
1921 1 -3.5374231988979092e-02 1.0229231269814855e-01 -6.8527709802363219e+01 0 0 0
161 1 -2.0164389566350387e+01 8.0137364840694687e+00 -7.2497610541220823e+01 0 -1 0
249 1 -1.2142505683826457e+01 8.0368233217684235e+00 -6.8600243544060831e+01 0 -1 0
386 1 -1.4150082295337720e+01 5.8306514402459717e+00 -6.4622571001283802e+01 0 0 0
311 1 -9.9137049010231522e+00 3.9959983049285466e+00 -6.6454147625916960e+01 0 0 0
389 1 -1.2096655980371910e+01 4.1079028736650054e+00 -6.4613178264089939e+01 0 0 0
247 1 -1.4221392404580548e+01 7.9323827254228148e+00 -6.6404098865628271e+01 0 -1 0
221 1 -2.0117548358204509e+01 3.9778889069654824e+00 -7.2674263635459525e+01 0 0 0
309 1 -1.2173526914806962e+01 3.9572199625695674e+00 -6.8596568329114874e+01 0 0 0
312 1 -1.2123411720074698e+01 6.0510858888404409e+00 -6.6609361360308895e+01 0 0 0
306 1 -1.4094193878378977e+01 6.0116118997330066e+00 -6.8717543741173870e+01 0 0 0
307 1 -1.4148099294246650e+01 3.9195864181091227e+00 -6.6554855267786763e+01 0 0 0
224 1 -2.0179459856636196e+01 6.1400336203779089e+00 -7.0714194617825569e+01 0 0 0
394 1 -6.1721486580621150e+00 5.9592098498396426e+00 -6.4497605652057132e+01 0 0 0
314 1 -6.2574768896408282e+00 5.9473862882057889e+00 -6.8343391177450442e+01 0 0 0
251 1 -1.0226517894207696e+01 7.9997561825822707e+00 -6.6525746220394467e+01 0 -1 0
393 1 -8.0876547822477853e+00 4.0236644294162396e+00 -6.4541196141748557e+01 0 0 0
253 1 -8.1604139736514405e+00 -7.9259586418624384e+00 -6.8461972870015046e+01 0 0 0
333 1 -8.1580945492371661e+00 -7.9915919939990285e+00 -6.4716148651633091e+01 0 0 0
255 1 -6.0226982155657796e+00 -8.0245162129880523e+00 -6.6510586509911718e+01 0 0 0
21 1 -2.0188662442957281e+01 -3.8976655732161918e+00 -8.0618664113135324e+01 0 0 0
4 1 -2.0114142918885261e+01 -6.1173712623587511e+00 -7.8807397064725976e+01 0 0 0
44 1 -2.0105392254613129e+01 2.0548709367228244e+00 -7.8573644713284651e+01 0 0 0
41 1 -2.0125424123503457e+01 3.1584300307816587e-02 -8.0677778830313258e+01 0 0 0
24 1 -2.0140788284333752e+01 -2.0085510924201211e+00 -7.8633428037553202e+01 0 0 0
61 1 -2.0024253970373817e+01 4.0201619355847606e+00 -8.0583864918851347e+01 0 0 0
1 1 -2.0105790656933500e+01 8.0330010794599485e+00 -8.0814669158760609e+01 0 -1 0
101 1 -2.0069871758659758e+01 -4.1666570644410958e+00 -7.6721008573271291e+01 0 0 0
381 1 -1.9911650480693851e+01 3.9954422741454487e+00 -6.4483590407195834e+01 0 0 0