LAMMPS (16 Feb 2016)
# ------------------------ INITIALIZATION ----------------------------
echo both
#log		log.c
units           metal
dimension       3
boundary        p p p
atom_style      atomic
shell         mkdir  cfg
WARNING: Shell command 'mkdir' failed with error 'File exists' (../input.cpp:1126)
shell         mkdir  dump
WARNING: Shell command 'mkdir' failed with error 'File exists' (../input.cpp:1126)


# ----------------------- ATOM DEFINITION & Force Field -------------
# ----------------------- ATOM DEFINITION ----------------------------
lattice         fcc 4.024845358 #origin 0.0 0.0 0.0 orient x 1 -1 0 orient y 1 1 -2 orient z 1 1 1
Lattice spacing in x,y,z = 4.02485 4.02485 4.02485
variable        Lx equal 52
variable        Ly equal 2
variable        Lz equal 208
variable        boxLZ equal 218
region          SYSTEM block -${Lx} ${Lx} -${Ly} ${Ly} -${Lz} 0 units lattice
region          SYSTEM block -52 ${Lx} -${Ly} ${Ly} -${Lz} 0 units lattice
region          SYSTEM block -52 52 -${Ly} ${Ly} -${Lz} 0 units lattice
region          SYSTEM block -52 52 -2 ${Ly} -${Lz} 0 units lattice
region          SYSTEM block -52 52 -2 2 -${Lz} 0 units lattice
region          SYSTEM block -52 52 -2 2 -208 0 units lattice
region          BOX block -${Lx} ${Lx} -${Ly} ${Ly} -${boxLZ} 5 units lattice
region          BOX block -52 ${Lx} -${Ly} ${Ly} -${boxLZ} 5 units lattice
region          BOX block -52 52 -${Ly} ${Ly} -${boxLZ} 5 units lattice
region          BOX block -52 52 -2 ${Ly} -${boxLZ} 5 units lattice
region          BOX block -52 52 -2 2 -${boxLZ} 5 units lattice
region          BOX block -52 52 -2 2 -218 5 units lattice
create_box      1 BOX
Created orthogonal box = (-209.292 -8.04969 -877.416) to (209.292 8.04969 20.1242)
  16 by 1 by 32 MPI processor grid
create_atoms    1 region SYSTEM
Created 346944 atoms

delete_atoms     porosity BOX 0.0002 18377    ##random seed <RAND1>
Deleted 66 atoms, new total = 346878

#---------------------------------------------------------------------------------
pair_style      eam/alloy
pair_coeff  	  * * Al_wkg_MSMSE_2009.set Al

#----------------------------------------------------------------------------------
velocity       all create 300.0 18985 mom yes rot yes dist gaussian         ##random seed <RAND2>

fix             1 all npt temp 300 300 0.1 iso 0.0 0.0 2
run      10000
Neighbor list info ...
  1 neighbor list requests
  update every 1 steps, delay 10 steps, check yes
  max neighbors/atom: 2000, page size: 100000
  master list distance cutoff = 8.365
  ghost atom cutoff = 8.365
  binsize = 4.1825 -> bins = 101 4 215
Memory usage per processor = 0.053688 Mbytes
Step Temp E_pair E_mol TotEng Press Volume 
       0          300   -917012.68            0   -903561.47    2125.2377    6048473.6 
   10000    299.41104   -902919.23            0   -889494.43   -4.5019488    6177223.2 
Loop time of 63.666 on 512 procs for 10000 steps with 346878 atoms

Performance: 13.571 ns/day, 1.769 hours/ns, 157.070 timesteps/s
99.9% CPU use with 512 MPI tasks x no OpenMP threads

MPI task timing breakdown:
Section |  min time  |  avg time  |  max time  |%varavg| %total
---------------------------------------------------------------
Pair    | 0.0051222  | 37.334     | 40.684     | 121.1 | 58.64
Neigh   | 0.00012898 | 0.10542    | 0.11797    |   7.9 |  0.17
Comm    | 0.030626   | 7.1047     | 21.217     | 112.3 | 11.16
Output  | 0.00084901 | 0.00085699 | 0.00087714 |   0.0 |  0.00
Modify  | 15.195     | 18.653     | 63.012     | 185.3 | 29.30
Other   |            | 0.4682     |            |       |  0.74

Nlocal:    677.496 ave 756 max 0 min
Histogram: 16 0 0 16 0 1 15 0 0 464
Nghost:    3195.34 ave 3584 max 0 min
Histogram: 16 0 0 16 0 16 0 0 0 464
Neighs:    47702.3 ave 53614 max 0 min
Histogram: 16 0 16 0 0 6 10 0 5 459

Total # of neighbors = 24423554
Ave neighs/atom = 70.4096
Neighbor list builds = 38
Dangerous builds = 0
unfix 1

fix            2 all nvt temp 300.0 300.0 0.1

run      10000
Memory usage per processor = 0.053688 Mbytes
Step Temp E_pair E_mol TotEng Press 
   10000    299.41104   -902919.23            0   -889494.43   -4.5019488 
   20000     299.5134   -902912.65            0   -889483.26    220.09075 
Loop time of 62.4864 on 512 procs for 10000 steps with 346878 atoms

Performance: 13.827 ns/day, 1.736 hours/ns, 160.035 timesteps/s
99.9% CPU use with 512 MPI tasks x no OpenMP threads

MPI task timing breakdown:
Section |  min time  |  avg time  |  max time  |%varavg| %total
---------------------------------------------------------------
Pair    | 0.0039279  | 37.024     | 40.455     | 119.8 | 59.25
Neigh   | 7.5579e-05 | 0.052161   | 0.060121   |   5.5 |  0.08
Comm    | 0.01653    | 7.1905     | 20.955     | 107.6 | 11.51
Output  | 0.00019908 | 0.00023706 | 0.00026107 |   0.1 |  0.00
Modify  | 11.477     | 15.03      | 59.243     | 205.7 | 24.05
Other   |            | 3.19       |            |       |  5.11

Nlocal:    677.496 ave 750 max 0 min
Histogram: 16 0 0 16 0 0 16 0 0 464
Nghost:    3199.48 ave 3587 max 0 min
Histogram: 16 0 0 16 0 16 0 0 0 464
Neighs:    47707.1 ave 53699 max 0 min
Histogram: 16 0 16 0 0 3 13 0 6 458

Total # of neighbors = 24426038
Ave neighs/atom = 70.4168
Neighbor list builds = 19
Dangerous builds = 0
reset_timestep 0
unfix    2
#---------------------- DEFINE Laser GERION and GROUP ----------------
region       R1  block -75  75  INF  INF  INF  5  units box
group        G1 region R1
123398 atoms in group G1
group        G2 subtract all G1
223480 atoms in group G2


#define     temperature/pressure calculation  group
variable    x1atom atom "x>=0  &&  x<4 &&  z>-40 && z<1"     ##NEW!!!!!!!!!!!!
variable    x2atom atom "x>=-209.292  &&  x<-205.292 &&  z>-40 && z<1"
variable    x3atom atom "x>=0  &&  x<4 &&  z>-20 && z<1"
variable    x4atom atom "x>=-209.292  &&  x<-205.292 &&  z>-20 && z<1"
variable    x5atom atom "x>=196  &&  x<200 &&  z>-40 && z<1"

group       x1atom variable x1atom
152 atoms in group x1atom
group       x2atom variable x2atom
160 atoms in group x2atom
group       x3atom variable x3atom
81 atoms in group x3atom
group       x4atom variable x4atom
80 atoms in group x4atom
group       x5atom variable x5atom
160 atoms in group x5atom


compute      COM1x x1atom com
compute      COM2x x2atom com
compute      COM3x x3atom com
compute      COM4x x4atom com
compute      COM5x x5atom com

compute      COMall all com

#Temperature profile
#variable      Tprofile atom 300*(1+(step/5000)*2.5*exp(z/40))
variable      Tprofile atom 300*(1+(step/5000)*2.5*exp(z/75))

# ------------------------- SETTINGS ---------------------------------
thermo          100
thermo_style    custom step lx pxx pyy pzz temp c_COM1x[1] c_COM1x[2] c_COM1x[3] c_COM2x[1] c_COM2x[2] c_COM2x[3] c_COM3x[1] c_COM3x[2] c_COM3x[3] c_COM4x[1] c_COM4x[2] c_COM4x[3]  c_COM5x[1] c_COM5x[2] c_COM5x[3] c_COMall[1] c_COMall[2] c_COMall[3]

timestep       0.002


compute dispall all displace/atom
# ---------------- Run Laser Material Interaction --------------------
#dump          1 all custom 1000 dump/z1dump.atom id type x y z c_dispall[1]  c_dispall[2]  c_dispall[3] c_dispall[4]
#dump          2 all cfg 100 cfg/*.cfg mass type xs ys zs
#dump_modify   2 element Al

#relax for 2 PS
#fix           1 all nvt temp 300.0 300.0 0.1
#run  1000
#unfix         1

fix           1  all nve
fix           3temp  G1  langevin  v_Tprofile  0  0.1  378411   #TEST ALL
run           5000
Memory usage per processor = 0.0537109 Mbytes
Step Lx Pxx Pyy Pzz Temp COM1x[1] COM1x[2] COM1x[3] COM2x[1] COM2x[2] COM2x[3] COM3x[1] COM3x[2] COM3x[3] COM4x[1] COM4x[2] COM4x[3] COM5x[1] COM5x[2] COM5x[3] COMall[1 COMall[2 COMall[3 
       0    421.53312    330.81337    359.50785   -30.048964     299.5134    1.6733304  -0.67329383   -19.178606   -207.74469  -0.92957139   -19.704444     1.453907  -0.78656284   -9.9026305   -207.76687  -0.91635704   -9.5462694    197.60269  -0.87720631   -19.707245   -1.0089073   -1.0132073   -418.50495 
     100    421.53312    370.67079    343.18236   -20.361594    300.06677    1.6397856  -0.64110167     -19.2104   -207.75456  -0.93034986   -19.684702    1.4077109  -0.71686588   -9.9445218    -207.7493  -0.89059077   -9.5290436    197.57573  -0.86731485   -19.719992   -1.0087108   -1.0124251   -418.50602 
     200    421.53312    416.81838    354.74206    6.6341427    300.62678    1.6407538  -0.62528541   -19.188731   -207.80183  -0.95961799   -19.710505    1.3954386  -0.68247618   -9.8985019    -207.7805  -0.95253298   -9.5783062    197.56764  -0.88295337   -19.687899   -1.0079727   -1.0112354   -418.50691 
     300    421.53312    461.59913    412.53044    78.750813    301.26567    1.6820552  -0.61185493   -19.171316   -207.78949  -0.90320503   -19.748721    1.4416958  -0.65417478    -9.889872   -207.75927  -0.93530299   -9.5748335    197.55616  -0.91254367   -19.672476   -1.0076644     -1.01045   -418.50763 
     400    421.53312    464.98652    447.51219    56.871756    301.30356    1.6896726  -0.66937076   -19.135891   -207.78697  -0.91846386    -19.78152    1.4630342  -0.73724615   -9.8378218   -207.75355  -0.92527401   -9.6446456    197.58083   -0.9783734   -19.682056   -1.0074958   -1.0102161   -418.50753 
     500    421.53312       463.23    484.55749    63.249505    302.05067    1.6734443  -0.63459011   -19.128101   -207.73523  -0.87375855   -19.776555    1.4407481   -0.6715936   -9.8161372   -207.69974   -0.8660857   -9.6059498    197.56515  -0.92443731   -19.738446   -1.0067269   -1.0099835    -418.5066 
     600    421.53312     557.4269    534.58341    143.65786    302.14725    1.6626499  -0.63671987   -19.127339   -207.74553  -0.93996623   -19.787168    1.4115083  -0.68455328   -9.8083148   -207.70217  -0.88855926   -9.5891344    197.57018  -0.92274149   -19.799952    -1.005538   -1.0097237   -418.50686 
     700    421.53312    575.98874    553.98015     179.3979    303.38019    1.6483156  -0.65497162   -19.139899   -207.76672  -0.97738669   -19.797096    1.3727457  -0.73036346     -9.85684   -207.73822  -0.97344929   -9.6652129    197.59363  -0.95547247   -19.801755   -1.0050505   -1.0091109   -418.50736 
     800    421.53312    585.43772     590.2949    271.17345    303.47116    1.6538438  -0.63343221   -19.147987   -207.73176  -0.93355443    -19.80306    1.4024301  -0.70864412   -9.8217146   -207.69719  -0.95890568   -9.6684006    197.57685   -0.9499889    -19.87342   -1.0037466    -1.008488   -418.50797 
     900    421.53312    652.80088    620.27669    282.88306    304.35604    1.6294279  -0.63024711   -19.165238    -207.7179  -0.93548797   -19.833645    1.3844086  -0.68144684    -9.853597   -207.74134  -0.94890944   -9.7003752    197.57966   -1.0165723   -19.858328   -1.0020453    -1.008337   -418.50854 
    1000    421.53312    629.36362    635.64743    306.45303    305.32081    1.6458464  -0.60128943   -19.141766    -207.7434   -0.9113081   -19.794187    1.3689289  -0.66972803   -9.8493123   -207.80154  -0.92734943   -9.6470172    197.52777  -0.98429546   -19.870544   -1.0006577   -1.0077549   -418.50843 
    1100    421.53312    662.30773    600.68648    273.23596    305.68237    1.6782398  -0.60430845   -19.092098   -207.80385  -0.96970717    -19.84881    1.4002464  -0.70947882   -9.7270078   -207.84148  -0.96777896   -9.7475024    197.52451  -0.94127178   -19.905052  -0.99838595   -1.0080536   -418.50852 
    1200    421.53312    716.71341    707.37061    397.05522    305.89688    1.6514485  -0.57881039    -19.08029   -207.78136   -1.0109313   -19.862993    1.3832175  -0.69620843   -9.7765083   -207.80849  -0.98342887   -9.7238946    197.53796  -0.95096729   -19.898689   -0.9968021   -1.0083934   -418.50813 
    1300    421.53312    752.73058    751.61846    397.09514     306.8844    1.6345346  -0.62150013    -19.05729   -207.74631   -1.0374133   -19.855591    1.3989896  -0.73641253   -9.7428441   -207.76911    -1.042025   -9.7255286    197.52366  -0.87304823   -19.856431  -0.99504936   -1.0080514    -418.5069 
    1400    421.53312    789.74905    751.79481    394.89105    307.91489    1.6470292   -0.6278467   -19.083102   -207.74232   -1.0243824   -19.855369    1.3862727  -0.74243296   -9.7666416   -207.74389   -1.0266318   -9.7113194    197.56886  -0.93010667   -19.828302  -0.99330866   -1.0076495   -418.50696 
    1500    421.53312    831.10793    776.20553    473.49028     308.3061    1.6555844  -0.65827897   -19.064197   -207.75791  -0.98298251   -19.853033    1.3867547  -0.76678325   -9.7359498    -207.6983  -0.97007375   -9.7051564    197.61277  -0.96779277   -19.815914  -0.99149968   -1.0076351   -418.50616 
    1600    421.53312    861.21026    823.82873    495.94751    308.54918    1.6278596  -0.63358433   -19.016911   -207.74741  -0.96465434   -19.901603    1.3752018  -0.73901822   -9.6780077   -207.68773  -0.97957623   -9.7178347    197.61137  -0.97451386   -19.792531   -0.9898096   -1.0067204    -418.5049 
    1700    421.53312    900.44993    818.06948     507.3421    308.99499    1.6108422  -0.61605428   -19.065976   -207.72279  -0.97296631   -19.887953    1.3491126  -0.67587009   -9.7848697   -207.68874  -0.99340833   -9.7123551    197.60705  -0.97885292   -19.788727  -0.98943811    -1.006953   -418.50386 
    1800    421.53312    925.74908    847.68948    521.79968    310.03866    1.6269073  -0.65806935   -19.055959   -207.75238  -0.94470562   -19.886667    1.3333509  -0.72090478   -9.7474827   -207.74649  -0.96191615    -9.718335    197.64116  -0.93883396   -19.831378  -0.98826375   -1.0069946   -418.50427 
    1900    421.53312    909.04365    906.06777    547.11714    310.14842    1.6642381  -0.66701623   -19.036446   -207.73049  -0.94833447   -19.892512    1.4021995  -0.77342938   -9.7049401   -207.76853  -0.92539399   -9.7453778    197.60537  -0.96860498   -19.885209  -0.98701863   -1.0080817   -418.50381 
    2000    421.53312    972.43277    928.38315    548.10289    310.89708    1.6392669  -0.63516533   -19.083505   -207.72949  -0.97146021   -19.882076    1.4072168  -0.72329008   -9.7402587   -207.74435  -0.93313083   -9.7176142    197.61693  -0.97323367    -19.92466  -0.98659963   -1.0088008   -418.50409 
    2100    421.53312    997.42311    914.82296    579.02315    311.37699    1.6259422  -0.66070219   -19.054514   -207.72276  -0.97932313   -19.927861    1.3939402  -0.72535552   -9.6871892   -207.71792  -0.94649167   -9.7664301    197.63004   -1.0191707   -19.913801  -0.98646329   -1.0096816     -418.504 
    2200    421.53312    1020.5369    975.75495    588.90894    312.82502    1.6400901  -0.64450258   -19.066894   -207.70378  -0.97381943   -19.975618    1.4112899  -0.74024064   -9.7382819   -207.71779  -0.94707616   -9.8048873    197.65263    -1.026363   -19.923978  -0.98630827   -1.0101803    -418.5033 
    2300    421.53312    1025.7003     1015.994    587.24639    313.49525    1.6160984  -0.59073363   -19.036955   -207.70087   -1.0149239   -19.947633    1.3838558  -0.69079856   -9.7077569   -207.72963   -1.0597215   -9.7839004    197.66265   -1.0108745   -19.848103  -0.98629777   -1.0097356   -418.50324 
    2400    421.53312    1058.3035    1039.8687    609.65427    314.08166    1.6465993  -0.62637859    -19.04131   -207.70536  -0.99118334   -19.895404     1.388362  -0.70893655   -9.7347529   -207.75769   -1.0466623   -9.7200234      197.671   -1.0012528    -19.93143  -0.98539966   -1.0091606    -418.5036 
    2500    421.53312    1098.8119    1064.5043    672.15234    313.62592    1.6150517  -0.64928603   -19.031347   -207.68499  -0.95293874   -19.851619    1.3840918  -0.73566977   -9.6770332   -207.71389  -0.97832613   -9.7029778    197.67384  -0.97155559   -19.926477  -0.98530866   -1.0080441   -418.50381 
    2600    421.53312    1118.6616    1085.7401    680.88126    314.87783    1.6247371  -0.69651851   -19.014229   -207.65324  -0.98002783   -19.855665    1.3993453  -0.79151495   -9.6398464   -207.65355  -0.97437849   -9.7204959    197.70965   -1.0093348   -19.885708  -0.98479009   -1.0078701    -418.5045 
    2700    421.53312    1122.9433    1102.5079    700.32179    315.95664     1.628666   -0.6927911   -18.986505   -207.62601  -0.96927899   -19.846532    1.4079365  -0.70267657   -9.5665069   -207.59953  -0.96802434   -9.7203829    197.72776   -1.0007984   -19.877258  -0.98335008   -1.0076009    -418.5044 
    2800    421.53312    1174.7588    1172.1275    779.99908    316.42061    1.5934749  -0.70808612   -18.983685   -207.60898  -0.97074517   -19.808901    1.3610826  -0.77504255   -9.6230518   -207.56006   -0.9036853   -9.6360985    197.76686   -0.9981645   -19.854395  -0.98315016   -1.0083775   -418.50387 
    2900    421.53312    1225.0729    1191.4289    766.57432    316.78186    1.5935881  -0.70291974   -18.925949   -207.59243   -1.0229587   -19.774701    1.3781239  -0.75456709   -9.5576963   -207.52861   -0.9861043   -9.5690914    197.79347  -0.98665265   -19.825769  -0.98314971   -1.0072515   -418.50359 
    3000    421.53312    1267.8034      1214.31    792.31471    317.29996    1.6394473   -0.5979855   -18.855345   -207.57763   -1.0394747   -19.811842    1.4120032  -0.63097002   -9.4891168   -207.55214   -1.0415859   -9.6367178    197.81551  -0.94942783   -19.818642  -0.98369041   -1.0060983   -418.50368 
    3100    421.53312    1260.9572    1225.2802    766.94393    317.37058    1.6030402  -0.65060927   -18.869781   -207.57033   -1.0558841   -19.727811    1.3984204  -0.65495193   -9.4918423   -207.58149   -1.0660068   -9.5843497    197.85345   -1.0335459   -19.783264  -0.98436148   -1.0069066    -418.5039 
    3200    421.53312    1227.2832    1207.3082    810.08363    318.57302    1.5739559  -0.60871548   -18.825807   -207.59745   -1.0612709   -19.689447    1.3494633  -0.61221927   -9.4475049   -207.63676   -1.0772148    -9.512183    197.82859   -1.0703867   -19.742349  -0.98426338   -1.0073728   -418.50413 
    3300    421.53312    1222.6657    1184.7541    717.73762    318.54536     1.589734  -0.65920696   -18.813946   -207.62776     -1.06665   -19.689434    1.3792222  -0.68946202    -9.431953   -207.66203   -1.0616753    -9.512676    197.79315   -1.0582551   -19.724049  -0.98421654   -1.0075051   -418.50488 
    3400    421.53312    1268.3874    1186.6199    725.49821    319.60152    1.5979801  -0.64010353   -18.812512   -207.65709   -1.1216544    -19.67706    1.3710968  -0.65191242   -9.4077996   -207.69561   -1.1240634   -9.4949438     197.7691   -1.1061604   -19.634922  -0.98504809   -1.0078473    -418.5061 
    3500    421.53312    1280.4074    1223.8865    713.58256    320.50197    1.5844307  -0.65334978   -18.822706   -207.67398    -1.139868   -19.645785    1.3559193  -0.72886569   -9.4454762   -207.68941    -1.158966   -9.4544116    197.70389   -1.0987856   -19.635238  -0.98464133    -1.007612   -418.50666 
    3600    421.53312    1294.0938    1262.3614    722.16368    321.49426    1.6285369  -0.66072365    -18.80862    -207.6718   -1.1517838   -19.580378       1.3591  -0.68375149   -9.4210095   -207.67761   -1.1942701   -9.3826464    197.70782   -1.0938554   -19.640053  -0.98479394   -1.0081407   -418.50641 
    3700    421.53312    1349.3455    1291.0214    770.25301    321.28677    1.6174327  -0.60388502    -18.84127   -207.71562   -1.1514659   -19.585337    1.3107763  -0.67617685   -9.4993327   -207.73807   -1.1405304   -9.4104716    197.67461   -1.1548419   -19.620709  -0.98631245   -1.0084408   -418.50706 
    3800    421.53312    1376.5616    1324.5333    764.44898    322.14767    1.6046615  -0.64467026   -18.817499   -207.74227   -1.1821573   -19.606185     1.293841  -0.60193493   -9.4435526   -207.77091   -1.1274593   -9.4183271    197.64851   -1.1598124   -19.647113  -0.98654823   -1.0097904   -418.50748 
    3900    421.53312    1388.7311    1318.5172     755.1159    322.62734    1.6199158  -0.65234959   -18.782718   -207.75768   -1.1612561   -19.603888    1.3204221  -0.63686676   -9.4004166   -207.78227   -1.1112114    -9.405413    197.64279   -1.1534585   -19.676459   -0.9872573   -1.0110997   -418.50755 
    4000    421.53312    1425.1432    1370.0921    792.02339    322.93001    1.6147363   -0.6614295   -18.740161   -207.74782   -1.1362658   -19.654552    1.3544799   -0.6964685   -9.3705091   -207.75455   -1.1012145   -9.4937097    197.61316   -1.1308684   -19.622381  -0.98791455   -1.0117383   -418.50786 
    4100    421.53312    1432.7023    1389.6316     781.4666    324.37111    1.5666802  -0.63926738   -18.800148   -207.77243   -1.0900502   -19.675772    1.3325569  -0.62513145   -9.4153052   -207.79416   -1.0984316   -9.5806441    197.59067   -1.0956963   -19.667171  -0.98835305   -1.0116671   -418.50899 
    4200    421.53312    1509.0173    1443.1906    854.86584    325.21095    1.5783564  -0.58705394   -18.937428   -207.77859   -1.0481288   -19.705457    1.3834096   -0.5773359    -9.569234   -207.79451   -1.0470664   -9.5625229     197.5882   -1.0944326   -19.694955  -0.98906792   -1.0118691   -418.51061 
    4300    421.53312    1522.7811    1435.3879    781.33347    325.83139    1.5969268  -0.58697301   -18.866599   -207.77399   -1.0097184   -19.665755    1.3703207  -0.61032599   -9.4415496   -207.77374   -1.0001245    -9.487009    197.63016   -1.0483556   -19.711417  -0.98927526    -1.012877    -418.5118 
    4400    421.53312    1536.5529    1466.0275    821.55176    326.29644     1.631394  -0.68579902   -18.837362   -207.77557  -0.98225597   -19.697377    1.4001431  -0.73965314   -9.4668187   -207.78184  -0.96570576   -9.5051961    197.66457   -1.0395365   -19.742429  -0.98949045    -1.013316   -418.51227 
    4500    421.53312     1493.661    1423.0322    842.98472    326.96744    1.6506048  -0.63231331    -18.80689   -207.78234  -0.97025114    -19.67931     1.429807  -0.63899796   -9.4181191   -207.74245   -1.0207117    -9.497158    197.65974   -1.0103627   -19.725407  -0.99034813   -1.0138384   -418.51295 
    4600    421.53312    1542.0159    1467.5764    860.04241    327.54086    1.6648042  -0.57666638   -18.856717   -207.75332   -1.0007993   -19.660817     1.425612  -0.58786454   -9.4262341    -207.7267    -1.027527   -9.4645347     197.6814  -0.97456675   -19.663535  -0.99189399   -1.0139037    -418.5132 
    4700    421.53312    1573.8327    1478.8151    900.00781    328.74928    1.7261814  -0.54370116   -18.864773   -207.69723  -0.98623992   -19.650506    1.4823135  -0.51892047   -9.4795392   -207.71795   -0.9821404   -9.5021224      197.664  -0.95601419   -19.661059  -0.99338952   -1.0134456   -418.51343 
    4800    421.53312    1593.3837    1560.6084    863.88928    329.04548    1.6818439  -0.51041626    -18.78112   -207.71207  -0.94275103   -19.648081    1.4152006  -0.52036011   -9.3726509   -207.70991  -0.90759701   -9.5234052    197.68679   -1.0172123   -19.594216  -0.99537607   -1.0138072   -418.51394 
    4900    421.53312    1601.8512    1541.9317    892.20864     329.7923     1.676806  -0.51766134   -18.740576   -207.74495  -0.93387472   -19.632158    1.4021852  -0.52993254   -9.3692031   -207.69794  -0.88659306   -9.4830729    197.66903   -1.0004864   -19.542954  -0.99771851    -1.014164   -418.51412 
    5000    421.53312    1615.8557    1524.2815    861.81025    330.77705    1.6391502  -0.52945876   -18.768819   -207.74714  -0.96524459   -19.624307    1.3902071  -0.59561068   -9.3424819   -207.67931  -0.95321462   -9.4417039    197.63685   -1.0041379   -19.493065   -1.0000865   -1.0138256   -418.51506 
Loop time of 31.3993 on 512 procs for 5000 steps with 346878 atoms

Performance: 27.517 ns/day, 0.872 hours/ns, 159.239 timesteps/s
99.9% CPU use with 512 MPI tasks x no OpenMP threads

MPI task timing breakdown:
Section |  min time  |  avg time  |  max time  |%varavg| %total
---------------------------------------------------------------
Pair    | 0.0020938  | 19.071     | 20.888     |  85.3 | 60.74
Neigh   | 0.00025845 | 0.29936    | 0.3439     |  13.1 |  0.95
Comm    | 0.061602   | 4.1321     | 10.983     |  74.9 | 13.16
Output  | 0.037322   | 0.058826   | 0.44177    |  28.3 |  0.19
Modify  | 0.030749   | 0.39973    | 0.97162    |  50.3 |  1.27
Other   |            | 7.438      |            |       | 23.69

Nlocal:    677.496 ave 766 max 0 min
Histogram: 16 0 0 16 0 1 15 0 9 455
Nghost:    3173.85 ave 3582 max 0 min
Histogram: 16 0 0 16 0 16 0 0 16 448
Neighs:    47755.5 ave 54409 max 0 min
Histogram: 16 0 16 0 0 11 5 0 28 436

Total # of neighbors = 24450802
Ave neighs/atom = 70.4882
Neighbor list builds = 107
Dangerous builds = 0


variable  com1_x equal "c_COM1x[1]"
variable  com1_y equal "c_COM1x[2]"
variable  com1_z equal "c_COM1x[3]"
variable  com2_x equal "c_COM2x[1]"
variable  com2_y equal "c_COM2x[2]"
variable  com2_z equal "c_COM2x[3]"
variable  com3_x equal "c_COM3x[1]"
variable  com3_y equal "c_COM3x[2]"
variable  com3_z equal "c_COM3x[3]"
variable  com4_x equal "c_COM4x[1]"
variable  com4_y equal "c_COM4x[2]"
variable  com4_z equal "c_COM4x[3]"
variable  com5_x equal "c_COM5x[1]"
variable  com5_y equal "c_COM5x[2]"
variable  com5_z equal "c_COM5x[3]"
variable  comall_x equal "c_COMall[1]"
variable  comall_y equal "c_COMall[2]"
variable  comall_z equal "c_COMall[3]"


fix          2 all print 100 "${com1_x}   ${com1_y}   ${com1_z}  ${com2_x}   ${com2_y}   ${com2_z} ${com3_x}   ${com3_y}   ${com3_z} ${com4_x}   ${com4_y}   ${com4_z} ${com5_x}   ${com5_y}   ${com5_z} ${comall_x}   ${comall_y}   ${comall_z}" file COM.data screen no
#-------------------------- Wave Propagation -------------------------
unfix        3temp
run          1000000
Memory usage per processor = 0.0537109 Mbytes
Step Lx Pxx Pyy Pzz Temp COM1x[1] COM1x[2] COM1x[3] COM2x[1] COM2x[2] COM2x[3] COM3x[1] COM3x[2] COM3x[3] COM4x[1] COM4x[2] COM4x[3] COM5x[1] COM5x[2] COM5x[3] COMall[1 COMall[2 COMall[3 
    5000    421.53312    1615.8557    1524.2815    861.81025    330.77705    1.6391502  -0.52945876   -18.768819   -207.74714  -0.96524459   -19.624307    1.3902071  -0.59561068   -9.3424819   -207.67931  -0.95321462   -9.4417039    197.63685   -1.0041379   -19.493065   -1.0000865   -1.0138256   -418.51506 
    5100    421.53312    1625.9194    1566.0923    880.55231     329.6698    1.6589482  -0.57574722    -18.72533   -207.79622  -0.97043641   -19.588305    1.4254419  -0.68102864   -9.2632339   -207.75244  -0.91052823   -9.3813475    197.65999  -0.99860939   -19.442681   -1.0017741   -1.0136659   -418.51752 
    5200    421.53312    1595.5844    1476.2546    815.39116    330.59517    1.6558067  -0.50150077   -18.582372   -207.80662  -0.96158373   -19.542019    1.4235051  -0.64395255   -9.0989882   -207.77386  -0.99558536   -9.3419439    197.62474  -0.94300844   -19.425397   -1.0034616   -1.0135061   -418.51997 
    5300    421.53312    1578.3729    1464.9791    739.06861    330.15747    1.6489682  -0.43192787    -18.41064   -207.79158  -0.95266851   -19.475074     1.391049  -0.51214878   -8.8741518   -207.78255   -1.0223647   -9.2916805     197.6632   -0.9059301   -19.452247   -1.0051491   -1.0133464   -418.52243 
    5400    421.53312    1532.2482    1433.1089    703.82158    330.13352    1.6786045  -0.53938884   -18.287396   -207.76479   -0.9453394   -19.443206    1.4225122  -0.62634088   -8.6790131   -207.75402  -0.96602651    -9.248954    197.67713  -0.87578839   -19.518172   -1.0068367   -1.0131866   -418.52488 
    5500    421.53312    1487.0465    1368.7312    611.55801    329.58097     1.709129  -0.53457757    -18.14188   -207.77588  -0.91845575    -19.44781    1.4087752  -0.64753317   -8.4821497   -207.81781   -0.9062111   -9.1921327    197.66895  -0.88706522    -19.50993   -1.0085242   -1.0130269   -418.52734 
    5600    421.53312     1431.195    1300.0504    525.45745    330.36132    1.6203228  -0.47825912   -17.979038   -207.83086    -0.930086   -19.414832    1.3291007  -0.60162918   -8.3046033   -207.88236  -0.98168917   -9.1818017    197.68397  -0.90737251   -19.485771   -1.0102117   -1.0128671    -418.5298 
    5700    421.53312    1453.5527    1316.5627    505.62703     329.5026    1.5826096  -0.54436321   -17.890416   -207.80711  -0.90223722   -19.392119    1.3220612  -0.69504263    -8.224097   -207.84375  -0.90464181   -9.1856896     197.6707   -0.9138432   -19.487643   -1.0118993   -1.0127073   -418.53225 
    5800    421.53312    1392.2285    1304.1912    452.07093     329.7713    1.5929215   -0.5404173   -17.875018   -207.80269   -0.9628034    -19.42104    1.3697007  -0.67883985   -8.2827589   -207.80151  -0.93106658   -9.2238167    197.65528   -0.8719186   -19.513944   -1.0135868   -1.0125476   -418.53471 
    5900    421.53312     1387.329    1253.1892     403.0906    329.75956     1.632059  -0.63811146   -17.880549   -207.77153   -1.0044503    -19.46893    1.3977202  -0.65698001   -8.2917969   -207.76555  -0.98007085   -9.2488519    197.59347  -0.90882901   -19.505377   -1.0152743   -1.0123878   -418.53716 
    6000    421.53312    1373.8401    1260.3406     346.9464    329.18111    1.6753405  -0.62955009   -17.832742    -207.8346  -0.94706981   -19.546234    1.4394755  -0.69839077   -8.2215047   -207.84021  -0.94689238   -9.3203371    197.64202  -0.94430372   -19.458775   -1.0169619   -1.0122281   -418.53962 
    6100    421.53312    1340.6351    1231.1799    246.79268    329.22794    1.6723018  -0.66840987   -17.663294   -207.85316  -0.92164697    -19.53217    1.4039985  -0.80117754   -8.0775506   -207.84983  -0.91438149   -9.3511227     197.6244  -0.90306697   -19.482234   -1.0186494   -1.0120683   -418.54208 
    6200    421.53312    1297.6178    1186.9282     227.8237     329.3147    1.6454347  -0.69630457    -17.54747   -207.85169  -0.93799479   -19.473902    1.3459844  -0.73989465   -8.0780422     -207.833  -0.96365367   -9.2697399    197.62823  -0.90011496   -19.501319   -1.0203369   -1.0119086   -418.54453 
    6300    421.53312    1302.3649    1154.1265    222.30752    329.52439    1.6172753  -0.67700849   -17.420167   -207.83242  -0.86429627   -19.486119    1.3552596   -0.7864351    -7.900444   -207.80001  -0.92311454   -9.2777844     197.6449  -0.87343269    -19.49867   -1.0220245   -1.0117488   -418.54699 
    6400    421.53312    1289.5338    1144.0474    179.80689    328.90935    1.6239232  -0.70952772   -17.338404   -207.83805  -0.76957129   -19.471087    1.3102082  -0.74409493   -7.8088793   -207.86815  -0.78810039   -9.2703596    197.67361  -0.88799566   -19.502019    -1.023712    -1.011589   -418.54945 
    6500    421.53312    1256.2063    1121.1395     122.9595    329.57455    1.6085488  -0.78390249   -17.222175   -207.84597  -0.79960573   -19.503825    1.3480022  -0.86362309   -7.6521773   -207.86107  -0.75368864   -9.2861508    197.68758  -0.89373485   -19.437224   -1.0253995   -1.0114293    -418.5519 
    6600    421.53312    1251.3802    1179.4314    164.53053    329.24647    1.6371237   -0.7001776   -17.206005   -207.84242  -0.80597579   -19.496061    1.4047258  -0.72349987   -7.6888515   -207.86437  -0.76828381   -9.2729282     197.6801  -0.89039554   -19.469133   -1.0270871   -1.0112695   -418.55436 
    6700    421.53312    1232.6439    1155.1555    77.701324    329.65243    1.6016984  -0.74993753   -17.124365   -207.79949   -0.8067382   -19.519616    1.3721928  -0.82797248   -7.5408039   -207.77481   -0.7975913   -9.2752048    197.67519  -0.99479864   -19.485349   -1.0287746   -1.0111098   -418.55681 
    6800    421.53312    1174.5587    1125.1076    86.390424    330.20381    1.5975615  -0.74581742   -16.977515   -207.81417  -0.85341042   -19.506928    1.3621857  -0.72063148   -7.3973159   -207.81431  -0.85364317   -9.2824433    197.67652  -0.93837672    -19.47254   -1.0304621     -1.01095   -418.55927 
    6900    421.53312    1205.0538    1098.9591    91.853247     329.6052    1.6615199  -0.68500592   -16.896539   -207.79677  -0.92484685   -19.496729    1.4258082  -0.68773438   -7.2678094   -207.76875  -0.88250734   -9.3279095    197.65953  -0.92166069   -19.500309   -1.0321497   -1.0107903   -418.56173 
    7000    421.53312    1181.9788    1114.3883    105.86284    329.58674    1.6733313  -0.64564287   -16.880286   -207.80445  -0.89228543   -19.480309    1.4122733  -0.70429515   -7.2278192   -207.80827  -0.86758813   -9.2443329    197.65474  -0.92137509   -19.498669   -1.0338372   -1.0106305   -418.56418 
    7100    421.53312    1186.6867    1101.3339    113.87667    329.76926    1.6136873  -0.60705313    -16.76608   -207.78381  -0.94064194   -19.515328    1.3921901  -0.64959364   -7.2003787   -207.78704  -0.93189047   -9.3204489    197.64425  -0.93813419   -19.567406   -1.0355247   -1.0104707   -418.56664 
    7200    421.53312    1137.8956    1125.8921    77.233652    329.50841    1.6333871  -0.62604831    -16.67196   -207.79082  -0.96573051    -19.55281    1.4228867  -0.72850732   -7.0501664   -207.77673  -0.98682432   -9.3679172    197.59883    -0.914709   -19.610577   -1.0372123    -1.010311   -418.56909 
    7300    421.53312    1119.9103    1095.8448    58.619871    329.38681    1.6337863  -0.64480542   -16.599809   -207.80075  -0.98922012    -19.59195    1.3762618  -0.75340883   -7.0121578   -207.84497   -0.9978858   -9.3852678    197.60246   -0.9698619   -19.600256   -1.0388998   -1.0101512   -418.57155 
    7400    421.53312    1179.4317    1073.2603    30.150317    329.33099    1.6109068  -0.73074473   -16.604599   -207.79772  -0.97277182    -19.68687    1.3596645  -0.83009694   -7.0840025    -207.8336  -0.97195563   -9.5425479    197.57813   -1.0254069   -19.633154   -1.0405873   -1.0099915   -418.57401 
    7500    421.53312    1157.5447     1062.497    52.791569    329.21163    1.5670023  -0.67068135   -16.620993   -207.79903  -0.90369823   -19.672438     1.310148  -0.79010488   -7.1108468   -207.81876  -0.92014141   -9.5144722    197.58836   -1.0222421   -19.690112   -1.0422749   -1.0098317   -418.57646 
    7600    421.53312    1106.2878    1092.5969    2.4628855    329.07295     1.574371   -0.6040047   -16.577035   -207.79696  -0.92016055   -19.724302    1.3044863  -0.73866218   -7.0895899   -207.81208  -0.95852999     -9.57921    197.59847    -1.020939   -19.761059   -1.0439624    -1.009672   -418.57892 
    7700    421.53312    1115.8797    1067.9276   -33.814831    329.52497    1.6259273  -0.58434646   -16.559094   -207.75743  -0.92799788   -19.772914    1.3586748  -0.67934842   -6.9796727   -207.76741  -0.96037373   -9.6190536    197.60918  -0.92729682   -19.815228   -1.0456499   -1.0095122   -418.58137 
    7800    421.53312    1091.2457    1058.3624   -69.837707    330.00373    1.6957541  -0.52079673   -16.616614   -207.77842  -0.91874039   -19.839415    1.4705492  -0.65147703   -7.0445269   -207.78442  -0.92551395   -9.6361219    197.61476  -0.88826719   -19.850745   -1.0473375   -1.0093524   -418.58383 
    7900    421.53312     1101.293    1046.4301    5.4250049    329.26216    1.7198544   -0.5234434   -16.645315   -207.81011  -0.91950061   -19.941634    1.4660974  -0.67022505   -7.0412871   -207.78647   -0.9116732   -9.7543485    197.67379  -0.81005066   -19.913471    -1.049025   -1.0091927   -418.58629 
    8000    421.53312    1074.4544    1040.3623   -85.575613    329.81996    1.7019668  -0.49112741   -16.622537   -207.78934    -0.981286   -19.969455    1.4986313  -0.66744107    -7.024657   -207.78065   -1.0050793    -9.808001    197.64915  -0.81413413    -19.92818   -1.0507125   -1.0090329   -418.58874 
    8100    421.53312    1086.6239    1024.3869   -49.106357    329.67514     1.767137  -0.51219234   -16.631033   -207.80154  -0.94483209   -20.018585    1.5250295  -0.52261269   -7.0647407   -207.82835  -0.95979889   -9.8791197    197.64081  -0.88998974   -19.933102   -1.0524001   -1.0088732    -418.5912 
    8200    421.53312    1056.7096     1044.009   -99.442622    329.33813    1.7216751  -0.46180205   -16.580657   -207.85338   -0.8637215   -19.940989    1.5119835  -0.49227667   -7.0819341   -207.88632  -0.85741035   -9.7716417    197.62787  -0.96032994   -19.944167   -1.0540876   -1.0087134   -418.59365 
    8300    421.53312    1048.5843    993.91207   -105.06987     329.7899    1.7137481  -0.47916082   -16.501222   -207.80442  -0.84695757   -19.933487    1.5077401  -0.54373389   -6.9274757   -207.83885  -0.82024052   -9.7522734    197.59033  -0.95708552   -19.979429   -1.0557751   -1.0085536   -418.59611 
    8400    421.53312    1047.1984    992.17141   -114.57491    329.96344    1.7099852  -0.51581058   -16.512188   -207.83048  -0.84303999    -19.94774    1.4950171   -0.5754662   -6.9640723   -207.85337  -0.79915421   -9.7164647    197.63384   -0.8909003   -19.929125   -1.0574627   -1.0083939   -418.59857 
    8500    421.53312     1049.418    981.37498   -105.04658    329.85792    1.7801546  -0.49790712   -16.574442   -207.78528  -0.85136727   -19.912126    1.5651032  -0.63873086   -6.9768697   -207.76879   -0.8125468   -9.7179343     197.6607  -0.84751783   -19.901794   -1.0591502   -1.0082341   -418.60102 
    8600    421.53312    1045.1782    983.35202   -135.27331    329.77488    1.7760254  -0.37563713   -16.645093   -207.76445  -0.84680523   -19.928175    1.5800489  -0.45594153   -7.0431068   -207.75394  -0.81348414   -9.7214157    197.72983  -0.83258007   -19.903621   -1.0608377   -1.0080744   -418.60348 
    8700    421.53312      1061.55    1009.8843   -134.31308     329.5154    1.7565879   -0.3877973   -16.606699   -207.76093  -0.85954963   -19.921633    1.5242154  -0.42978657   -6.9908619   -207.73032  -0.82982297   -9.7514247    197.76612   -0.8177046   -19.854637   -1.0625253   -1.0079146   -418.60594 
    8800    421.53312    1089.4839    989.10609   -98.762537    329.81983    1.6921479  -0.36361119   -16.598571   -207.71004  -0.87838285   -19.916763    1.3642036   -0.3819404   -7.0181715   -207.64675  -0.90458634   -9.7552887    197.74983  -0.83142204    -19.83647   -1.0642128   -1.0077549   -418.60839 
    8900    421.53312    1058.3162    997.22897   -105.26851    329.26651    1.7156823  -0.43367062   -16.530824   -207.71063  -0.87383771   -19.845646     1.457948  -0.41799613   -7.0154047   -207.66816  -0.91659323   -9.6231321    197.69635  -0.84711373   -19.814581   -1.0659003   -1.0075951   -418.61085 
    9000    421.53312    1015.9844    942.61702   -194.07524    329.85204    1.6574248  -0.51057265   -16.620434   -207.75764  -0.85801259   -19.832962    1.3820083  -0.57200538    -7.034555    -207.7395  -0.90826668   -9.6198602    197.71345  -0.85022177   -19.801932   -1.0675879   -1.0074353    -418.6133 
    9100    421.53312    1038.8665    937.08364   -203.79762    329.59382    1.5752867  -0.58921023   -16.633149   -207.78006  -0.88642229   -19.760461    1.3407023  -0.72113201   -7.0499274   -207.77301  -0.95371621   -9.5838429    197.68969  -0.88047787   -19.745896   -1.0692754   -1.0072756   -418.61576 
    9200    421.53312    1050.5614    957.24323   -216.13638    329.15534    1.5755509  -0.63570924   -16.724577   -207.83221  -0.87535401   -19.676726    1.3277441  -0.70868718   -7.1862187   -207.83724  -0.89921987    -9.466193    197.66811  -0.85615566   -19.727587   -1.0709629   -1.0071158   -418.61822 
    9300    421.53312    980.61398    922.78252   -290.31164    330.09812    1.5311027  -0.50717623   -16.696773   -207.80272  -0.89429728   -19.659749    1.2959929  -0.59213487   -7.1506234   -207.83745  -0.86842649   -9.4346247    197.65154  -0.85165725   -19.703398   -1.0726505   -1.0069561   -418.62067 
    9400    421.53312    1022.0703    938.52662   -262.51628    329.56554    1.5394262  -0.61454415    -16.65459   -207.87497  -0.96676688   -19.591985     1.297595  -0.65880559   -7.1181197   -207.89773  -0.93818822   -9.3426224    197.68647  -0.90764179   -19.632432    -1.074338   -1.0067963   -418.62313 
    9500    421.53312    1026.6166    927.99411   -235.09706    329.83248    1.5750086  -0.58978924   -16.761533   -207.82973  -0.93610647    -19.58177    1.3192688  -0.61158268    -7.304722   -207.85027  -0.89084562   -9.3184646    197.69254  -0.90316056   -19.534662   -1.0760255   -1.0066366   -418.62558 
    9600    421.53312    1014.3473    917.51971   -261.84767    329.55313    1.5676911  -0.52863383   -16.878567   -207.82499  -0.97046206   -19.542052    1.2835651  -0.63323464   -7.3899243   -207.80212  -0.93585859   -9.2952009    197.73694  -0.91598541   -19.534124   -1.0777131   -1.0064768   -418.62804 
    9700    421.53312     969.5496    925.71701   -325.95136    329.74394     1.559985  -0.50507044   -16.972522   -207.76963  -0.98234617   -19.493986    1.2626193  -0.68165755   -7.4633422   -207.75674  -0.96705575    -9.272247     197.7015  -0.91784756   -19.463887   -1.0794006    -1.006317    -418.6305 
    9800    421.53312    1016.1751    923.57533   -292.11941    329.30126    1.5374607  -0.50990195   -17.209349   -207.73603  -0.98536259   -19.479434    1.2069552   -0.6121817    -7.779022   -207.73317  -0.96267162   -9.2452974    197.68397  -0.92560898   -19.424933   -1.0810881   -1.0061573   -418.63295 
    9900    421.53312    966.70591    913.29621   -318.89187    329.99089    1.5115277  -0.45642173    -17.30849   -207.75086   -1.0019315   -19.508318    1.2074196  -0.56198673   -7.8720576   -207.72265   -1.0212888   -9.3200636    197.72532  -0.89796903   -19.437361   -1.0827757   -1.0059975   -418.63541 
   10000    421.53312    995.61171    963.05345   -249.92886     330.1719    1.4851952   -0.4641719   -17.319973    -207.7813   -1.0413386   -19.436978     1.186288  -0.55301833    -7.833022   -207.73745   -1.0624066   -9.2256177    197.73964  -0.92218846   -19.445706   -1.0844632   -1.0058378   -418.63786 
   10100    421.53312    1029.9417    985.04722   -212.05433     329.5942    1.5105932  -0.51468754   -17.434019   -207.80359   -0.9963314   -19.445956    1.2149358  -0.57883028   -7.9488965   -207.81667    -1.015077   -9.2333883    197.69122  -0.98971287   -19.403091   -1.0861507    -1.005678   -418.64032 
   10200    421.53312    1016.6504    920.90927   -307.48965    329.86337    1.5643116  -0.57785495   -17.455079   -207.81694  -0.98054334   -19.381061    1.3245099  -0.66430944   -7.9123818   -207.85503   -1.0018968   -9.1496825    197.63598   -1.0615241   -19.358201   -1.0878383   -1.0055183   -418.64278 
   10300    421.53312    989.44757    911.60808   -308.79117    329.78423    1.5890276  -0.68574045   -17.433495   -207.83065   -1.0046551   -19.392876    1.3417627  -0.83534187   -7.8814239   -207.84523  -0.96807846   -9.1921966    197.62164   -1.0720399   -19.314663   -1.0895258   -1.0053585   -418.64523 
   10400    421.53312    961.53149    896.11937   -327.13504    329.86465    1.6592414  -0.60491181   -17.443488   -207.86944   -1.0637804   -19.318029    1.3863935   -0.6668773   -7.8646443   -207.87117   -1.0178192   -9.1000101    197.63016   -1.0742126   -19.221667   -1.0912133   -1.0051987   -418.64769 
   10500    421.53312     979.9168    915.88093   -320.11569    328.93019    1.6407138  -0.54992935   -17.429293   -207.88562  -0.96488595   -19.154463    1.3844815  -0.68781787   -7.9624652   -207.87736  -0.93246351   -8.9066606    197.58251   -1.1027385   -19.138839   -1.0929009    -1.005039   -418.65014 
   10600    421.53312    943.36111    809.61378    -453.4041    330.20382    1.6331542  -0.54160163   -17.393333   -207.87469  -0.92215434   -19.074599    1.3915752  -0.61909044   -7.9565462   -207.87963  -0.92434374   -8.8569462    197.57423   -1.0833557   -19.122289   -1.0945884   -1.0048792    -418.6526 
   10700    421.53312    890.99732    834.77369   -447.87109    329.78023    1.5937406  -0.67150025   -17.535517   -207.80003  -0.90335592    -19.01785    1.3586949  -0.75739073   -7.9333551   -207.83092  -0.93823885   -8.7848646    197.51598    -1.007562   -19.073803   -1.0962759   -1.0047195   -418.65506 
   10800    421.53312    864.45546    802.84004   -559.59369    330.23979     1.571078  -0.65948041   -17.563106   -207.85293  -0.92476305   -18.976547    1.3132921  -0.72481971   -7.9580741   -207.87228  -0.97356682   -8.7693872    197.55056  -0.95840153   -18.974732   -1.0979635   -1.0045597   -418.65751 
   10900    421.53312    838.46718    768.86735   -586.46059    329.43939    1.5651736  -0.66355723   -17.731589   -207.83926  -0.89622505   -18.955794    1.2980798  -0.74450423   -8.1522904   -207.80886  -0.93212306   -8.7833157    197.54349  -0.84535213    -18.95974    -1.099651      -1.0044   -418.65997 
   11000    421.53312    790.69587    717.13919   -611.02043     329.9152    1.5879594  -0.67516947   -17.727716   -207.86532  -0.85083381   -18.970093    1.3256097  -0.76547003   -8.1646909   -207.87182  -0.88248757   -8.8474346    197.54495  -0.80527111   -18.977536   -1.1013385   -1.0042402   -418.66243 
   11100    421.53312    727.70679    700.84078   -663.54144    330.21467     1.563339  -0.70645128   -17.714115   -207.86849  -0.87560827   -18.912051     1.248418  -0.80168043   -8.1656013   -207.89592  -0.90300803   -8.7028365    197.55077  -0.80475412   -18.947421   -1.1030261   -1.0040804   -418.66488 
   11200    421.53312    767.03064    737.12255   -713.35665    328.91179    1.5343471  -0.68443539   -17.709986   -207.83313   -0.8487588   -18.905774    1.2829702  -0.75166108   -8.2040199   -207.82431  -0.84534438   -8.7003032     197.5531  -0.77335226   -18.960823   -1.1047136   -1.0039207   -418.66734 
   11300    421.53312    712.92168    668.40073   -782.88756    329.42371    1.4949176  -0.66229599   -17.771085   -207.79348  -0.83762562   -18.864506    1.2677413  -0.73474828   -8.3164038   -207.79684  -0.82206619    -8.626825    197.52897  -0.80297763   -18.968297   -1.1064011   -1.0037609   -418.66979 
   11400    421.53312    660.47251    597.85901    -878.8019    329.52592    1.4496297  -0.67827348   -17.743912   -207.88404  -0.88053686   -18.820727    1.1781741  -0.74601203    -8.303343   -207.86268  -0.82871491   -8.6026757    197.51557  -0.81112603   -18.996997   -1.1080887   -1.0036012   -418.67225 
   11500    421.53312    643.21778    596.24311   -907.14496    329.38661    1.4770974  -0.69915086   -17.770008    -207.8767  -0.85140827   -18.815636    1.1940414  -0.87035588    -8.281166   -207.85353  -0.80938407   -8.5690413    197.45179  -0.77655684   -18.985746   -1.1097762   -1.0034414   -418.67471 
   11600    421.53312    644.64098    543.75471   -936.99615    329.43825    1.5148456  -0.71098912   -17.878948   -207.94431  -0.84598533   -18.860689    1.2440613  -0.82555993   -8.3830204   -207.93778  -0.79749464   -8.6902604    197.43624  -0.80694002   -18.928873   -1.1114637   -1.0032817   -418.67716 
   11700    421.53312    628.89661    606.77361   -943.33953    328.96759    1.5422872  -0.61980447   -17.762784   -207.92927  -0.81256844   -18.994665    1.2924271  -0.69811877   -8.1134301   -207.97419  -0.78757499   -8.8396798    197.38515  -0.80108676   -18.923132   -1.1131513   -1.0031219   -418.67962 
   11800    421.53312    634.25992    607.39721   -902.84376    329.39282    1.6230135  -0.70392775   -17.755329   -207.95162  -0.76303993   -18.984081    1.3767862  -0.77498546   -8.1248385   -207.97686  -0.81730394   -8.8642794    197.39107  -0.81102074   -18.960833   -1.1148388   -1.0029621   -418.68207 
   11900    421.53312    684.88499    633.46259   -921.65588     329.1861    1.5187144  -0.63685639   -17.770719   -207.96764    -0.735062   -19.044481    1.2231628  -0.67853496   -8.2086211   -207.98919  -0.77419533   -8.9097592    197.41909  -0.85938555   -19.008321   -1.1165263   -1.0028024   -418.68453 
   12000    421.53312    652.01141    626.04651   -864.76075    329.94979    1.4995892  -0.65896101   -17.800786   -207.93176  -0.77009539   -19.088119    1.2183012  -0.69073145   -8.2148496   -207.95717  -0.78636332   -8.8621665    197.45243  -0.89576398   -19.022661   -1.1182139   -1.0026426   -418.68699 
   12100    421.53312    694.20709     716.3974   -742.03075    329.25572    1.5340488  -0.71244671   -17.720544   -207.94988  -0.83305311   -19.124451    1.2606518  -0.73902392   -8.1196667   -207.98054  -0.87262215   -8.9266656      197.449  -0.89795919   -19.054745   -1.1199014   -1.0024829   -418.68944 
   12200    421.53312     788.2147    737.49159   -670.58999    329.30371    1.5283461  -0.77076744   -17.721453   -207.94791  -0.92093629   -19.130806    1.2939677  -0.85790636   -8.1611622   -207.94708  -0.93883565   -8.8553577    197.47159  -0.92128426   -19.122151   -1.1215889   -1.0023231    -418.6919 
   12300    421.53312    794.94753     763.3113   -599.56482     329.6915    1.5185484  -0.76798621   -17.666596   -207.91756  -0.93315034   -19.148224    1.3003033  -0.85073376   -8.1003683   -207.87189  -0.95586841   -8.9321226    197.45677  -0.93153191   -19.100065   -1.1232765   -1.0021634   -418.69435 
   12400    421.53312    861.29925    809.95106   -555.20325     329.7561    1.5121606  -0.73473256   -17.711762   -207.89591  -0.98157223   -19.130807    1.2954448  -0.82578311   -8.2140352   -207.84593  -0.98846248   -9.0087626    197.50069  -0.88962087   -19.102599    -1.124964   -1.0020036   -418.69681 
   12500    421.53312      909.512     817.2587   -469.36137    329.52392    1.4710246  -0.74962002   -17.726516   -207.87057   -1.0339678   -19.214283    1.1883848  -0.87432592   -8.2224091   -207.83275   -1.0571266   -9.0809548    197.49963  -0.94849919   -19.169339   -1.1266516   -1.0018438   -418.69927 
   12600    421.53312    915.99015    843.40066   -416.40903    330.05711    1.4743387  -0.71567453   -17.730388   -207.83966  -0.99760144   -19.230925    1.1446692  -0.83825583   -8.1771842   -207.80974  -0.94694334   -9.0632768    197.49552  -0.89339903   -19.172873   -1.1283391   -1.0016841   -418.70172 
   12700    421.53312    966.68533    858.32572   -365.47388    329.93132    1.4547709  -0.71193204   -17.756672   -207.85442  -0.95139471   -19.280909    1.1518467  -0.78618819   -8.2079602   -207.85578  -0.91763489   -9.0927338     197.5274  -0.90720194   -19.212189   -1.1300266   -1.0015243   -418.70418 
   12800    421.53312    990.86139    903.43813   -315.88831    329.97111    1.5280145  -0.78157801   -17.761942   -207.86911  -0.93688991   -19.260095    1.2053184  -0.91061189    -8.184744   -207.81427  -0.91398078   -9.0649308    197.58459  -0.90848086   -19.234922   -1.1317142   -1.0013646   -418.70663 
   12900    421.53312    1007.1785    920.66524   -259.55711    330.25238    1.5014599  -0.73778153   -17.730638   -207.85771  -0.92803855   -19.242657    1.2358507  -0.76833039    -8.239312   -207.84804  -0.92530696   -9.0089519    197.55445  -0.88885425   -19.252991   -1.1334017   -1.0012048   -418.70909 
   13000    421.53312    1021.3967    955.52665   -209.10969    330.34659    1.4997449  -0.74219279   -17.692025   -207.86811   -0.9097977   -19.235478     1.253938  -0.86018668   -8.2595145   -207.85495  -0.92153852   -9.0037037    197.56067  -0.88001882   -19.214334   -1.1350892   -1.0010451   -418.71155 
   13100    421.53312     1073.141    981.20181   -169.12764    330.08871    1.5039147   -0.6123678    -17.77739   -207.89282  -0.90439954   -19.233651    1.2798303  -0.73966103   -8.3537557   -207.88771  -0.93066899    -8.985167    197.56019  -0.93626942   -19.195821   -1.1367768   -1.0008853     -418.714 
   13200    421.53312    1084.6524    969.03484   -136.49313     330.2349    1.5008627  -0.69375531   -17.814916   -207.89253  -0.89940087   -19.171202    1.2313514  -0.80306086   -8.3683363   -207.87399  -0.89194386   -8.9455165    197.55509  -0.98990815   -19.169945   -1.1384643   -1.0007255   -418.71646 
   13300    421.53312    1095.7658    994.97264   -130.17157    330.22771    1.4876265  -0.70169887    -17.79071   -207.92228  -0.93430352   -19.179639    1.2300464  -0.79480837   -8.3106612   -207.91592  -0.96028191   -8.9807166    197.55851   -1.0357058   -19.142923   -1.1401518   -1.0005658   -418.71892 
   13400    421.53312    1067.9493    995.62822   -130.49654    330.33157    1.5299517  -0.57509259    -17.74673   -207.93329  -0.97163537   -19.181492    1.2838659  -0.62844294   -8.2609849   -207.94282  -0.93784967   -9.0112137    197.52327   -1.0680274   -19.168641   -1.1418394    -1.000406   -418.72137 
   13500    421.53312    1127.3847    997.43716   -88.663413    329.88219    1.4754258  -0.55359142   -17.715201   -207.90056   -1.0354517   -19.245683    1.2153374  -0.58460415   -8.1476969   -207.89821   -1.0131774   -9.0458095    197.48866   -1.0576786   -19.183721   -1.1435269   -1.0002463   -418.72383 
   13600    421.53312    1059.1549    1021.7013   -125.47862     330.6473    1.4446676  -0.57743853   -17.636786   -207.92598   -1.0655767   -19.239896    1.1713256  -0.57591746   -8.1376864   -207.93069   -1.0534811   -9.0247778    197.48051     -1.08737   -19.273465   -1.1452144   -1.0000865   -418.72628 
   13700    421.53312    1083.1937    1044.4768    -107.1261    330.11515    1.4890609  -0.53792266   -17.635436   -207.97685    -1.063604   -19.288835    1.2065861  -0.50407929   -8.1289221   -207.98428   -1.1077802   -9.0606106    197.45902   -1.0997225   -19.343375    -1.146902  -0.99992676   -418.72874 
   13800    421.53312    1089.8491    1047.2647   -63.565753    330.41743    1.4569061  -0.50008636   -17.628715     -207.979   -1.0364298   -19.368003    1.1861815  -0.59721094   -8.1276133   -207.99693    -1.089051    -9.155799    197.44462   -1.0904348   -19.349465   -1.1485895    -0.999767    -418.7312 
   13900    421.53312    1152.6285    1085.8976   -25.422778    329.73741    1.4872219  -0.47314195   -17.656343   -207.98047   -1.0506246   -19.386584    1.2840668  -0.57341287   -8.1317379   -208.00027   -1.1309081   -9.2119356    197.49015   -1.0592621   -19.337611    -1.150277  -0.99960724   -418.73365 
   14000    421.53312    1128.7008    1087.1377     22.88492    330.28076    1.4729413  -0.44493297   -17.674959   -207.92575   -1.0265582   -19.391234    1.2585543  -0.56680331   -8.1954475   -207.97033   -1.0925949   -9.2346739    197.43567   -1.0366714    -19.33037   -1.1519646  -0.99944748   -418.73611 
   14100    421.53312    1177.1524    1147.9932    51.043661    329.27713     1.474215  -0.49012783    -17.69146   -207.94683   -1.0392826   -19.427035    1.2162293  -0.64033149   -8.2149779   -208.01663   -1.0372518   -9.2231029    197.48729   -1.0363063   -19.307073   -1.1536521  -0.99928773   -418.73856 
   14200    421.53312    1161.7411    1105.0213    47.856297    329.76227    1.4642371   -0.4500396   -17.627991   -207.96824   -1.0013697   -19.429693    1.2521345  -0.59971749   -8.1572667   -207.96452   -1.0056567   -9.1985983    197.48003   -1.0017132    -19.38778   -1.1553396  -0.99912797   -418.74102 
   14300    421.53312    1159.1444    1121.3585    58.185577    330.00659    1.3943257  -0.39687791   -17.503049   -207.98152  -0.99473361   -19.348798    1.2206739  -0.49962059   -8.0723367   -207.96632  -0.99853102    -9.103888     197.4413   -1.0606268   -19.413084   -1.1570272  -0.99896821   -418.74348 
   14400    421.53312     1145.839    1112.8007    44.022434    330.15417    1.4288787  -0.40342995    -17.43083   -208.00504  -0.97450051   -19.317352    1.2205364  -0.50481132   -7.8983061   -207.98664  -0.95135722   -9.1090476     197.3974   -1.0339324   -19.406865   -1.1587147  -0.99880846   -418.74593 
   14500    421.53312    1183.0326    1091.0538      71.1146    330.15892    1.4339638  -0.40105391   -17.389265   -208.00691  -0.99774277   -19.343872    1.1409222  -0.41902391   -7.8453983   -208.01454  -0.98512383   -9.1621088    197.42499   -1.0011739   -19.399087   -1.1604022   -0.9986487   -418.74839 
   14600    421.53312    1155.5114    1134.3152    62.005082    330.24422    1.4020324    -0.327377   -17.282223   -208.00366  -0.98435839   -19.392565     1.068888  -0.33924691   -7.7998085   -208.02858    -0.960788   -9.2041882     197.4287   -1.0038671   -19.374355   -1.1620898  -0.99848894   -418.75084 
   14700    421.53312    1153.2541    1136.7984    8.0084784    330.90006    1.3895068  -0.29781819   -17.272653   -207.96353   -1.0075374   -19.392211    1.0406777  -0.33137222    -7.779999   -207.95788  -0.97413981   -9.1827969    197.42453   -1.0250982   -19.443175   -1.1637773  -0.99832918    -418.7533 
   14800    421.53312    1173.9394    1156.6318    83.814322    329.86051    1.3978571  -0.27272404   -17.142122   -207.93489  -0.96078931   -19.358694    1.0925589  -0.35913116   -7.6526153   -207.92554   -0.9176609   -9.1694668     197.4613  -0.98141094   -19.461487   -1.1654648  -0.99816943   -418.75576 
   14900    421.53312     1145.749    1114.2204    57.691318    330.41984    1.4759454  -0.29719486   -17.179283   -207.93186  -0.98796974    -19.46024    1.1605606  -0.37053137   -7.7060007   -207.94891  -0.97020673   -9.2551919    197.49675  -0.93964232   -19.527523   -1.1671524  -0.99800967   -418.75821 
   15000    421.53312     1185.166    1156.8066    117.88804    329.95227    1.5112488  -0.21659519   -17.139492   -207.90238  -0.93804503   -19.523837    1.2775516  -0.21937754   -7.6260731   -207.92209   -0.9444231   -9.2896339     197.4856  -0.88847908    -19.55153   -1.1688399  -0.99784991   -418.76067 
   15100    421.53312    1173.4981    1172.2765     129.3503    330.31898    1.5124055  -0.18821255   -17.111255   -207.95414  -0.83203818   -19.561805    1.2706656  -0.25546686   -7.6588981   -208.02823  -0.83982618   -9.3093488    197.52041   -0.8721629   -19.596108   -1.1705274  -0.99769015   -418.76312 
   15200    421.53312    1192.5009    1162.1066    120.30331    330.21432    1.4543806  -0.22352771   -17.131363   -207.90667  -0.81380817     -19.5944    1.2023386  -0.22137387   -7.6185421   -207.95436  -0.79439531   -9.4028832    197.52284  -0.84661794   -19.632267    -1.172215   -0.9975304   -418.76558 
   15300    421.53312    1196.6303    1151.9181    102.28115    330.40397    1.4230511   -0.2611035    -17.10952   -207.89224  -0.77307915   -19.666531    1.2073308    -0.309199    -7.570837   -207.95205  -0.78833978   -9.4665133    197.50961   -0.7896086   -19.657641   -1.1739025  -0.99737064   -418.76804 
   15400    421.53312    1191.7136    1165.1077    123.59616    330.11277    1.3988192  -0.35692912   -17.207246   -207.89612   -0.8055879   -19.689249    1.1260436  -0.44419543   -7.6903619    -207.9046  -0.84348074   -9.4742993    197.44847  -0.76881905   -19.671776     -1.17559  -0.99721088   -418.77049 
   15500    421.53312    1162.8587    1123.6252    65.652023    330.81128    1.4000528  -0.38110289   -17.274025   -207.92874  -0.78201018   -19.704301     1.141456  -0.47805479   -7.7964323   -207.88955  -0.81655194    -9.480097    197.45806   -0.7477017   -19.639078   -1.1772776  -0.99705113   -418.77295 
   15600    421.53312     1219.339    1158.8175     118.4492     330.2254    1.4103448  -0.44516845   -17.259879   -207.96378  -0.72811171   -19.707642    1.1801475  -0.46209116   -7.7245763    -207.9378  -0.78362127     -9.55982    197.43958  -0.73521303   -19.652233   -1.1789651  -0.99689137   -418.77541 
   15700    421.53312    1219.1243    1191.4989    163.17955    330.48135    1.4727294  -0.51730614     -17.3459   -207.99701  -0.74913619   -19.736657    1.2623869  -0.51148897   -7.8621487   -207.98079  -0.71675911   -9.5793379    197.44818  -0.72367597   -19.680745   -1.1806526  -0.99673161   -418.77786 
   15800    421.53312    1282.3671    1244.0016    211.20319    329.87714    1.4599138  -0.55417111   -17.443641   -207.97589  -0.73688002   -19.756383    1.2485662  -0.57535393   -7.9939997    -207.9699  -0.70338371   -9.5705064    197.42538  -0.65273108   -19.647398   -1.1823402  -0.99657185   -418.78032 
   15900    421.53312    1247.1258    1203.5945    206.07347    330.62944    1.4735911  -0.57757672   -17.542163   -207.99245  -0.71655907   -19.772562    1.2093838  -0.65876277   -8.0463759   -207.96875  -0.65652524   -9.5268263    197.43915  -0.65602845   -19.630302   -1.1840277   -0.9964121   -418.78277 
   16000    421.53312    1270.5043    1256.0243    315.36872    330.26902    1.4379412  -0.59267191    -17.58807   -207.95822  -0.69601685   -19.780435    1.1822929  -0.72190225   -8.1787491   -207.94772  -0.56233859   -9.5330727    197.46492  -0.62786575   -19.705599   -1.1857152  -0.99625234   -418.78523 
   16100    421.53312    1293.2522    1292.4849    328.05105    330.37428     1.474613  -0.60904103   -17.540399   -208.00054   -0.6748326   -19.727412    1.2057919  -0.73276428   -8.1546932   -207.99018  -0.57819321   -9.4688975    197.48923  -0.60590807   -19.747387   -1.1874028  -0.99609258   -418.78769 
   16200    421.53312    1311.2073    1276.9907    280.74563    330.46906    1.4964558  -0.59035446   -17.647187   -208.00893  -0.69516007   -19.725483    1.2155336   -0.6884119   -8.2105251   -208.04078  -0.64614033   -9.5303717    197.42797  -0.66374414   -19.817352   -1.1890903  -0.99593282   -418.79014 
   16300    421.53312    1284.7074    1292.1616    296.87619     330.3915    1.4891496  -0.57734835   -17.710333   -208.03194  -0.64003032   -19.768784     1.199101  -0.60189772   -8.2929531   -208.06243  -0.61456145   -9.5648865    197.44868  -0.68890876   -19.822344   -1.1907778  -0.99577307    -418.7926 
   16400    421.53312    1312.8508    1244.3014    312.25646    330.81102    1.4926154  -0.56758677   -17.754063   -208.02353  -0.63679226   -19.792226    1.2184104  -0.69609928   -8.3223517   -208.02216  -0.64515738   -9.5807264    197.44989  -0.66875881   -19.825317   -1.1924654  -0.99561331   -418.79505 
   16500    421.53312    1311.1373    1279.2846    341.09929    330.50267     1.511771  -0.56736455   -17.784523   -208.02543  -0.69464258   -19.785147    1.2502912  -0.69588315   -8.2888198   -208.01366  -0.70340435   -9.5302614    197.43631  -0.65121127   -19.788305   -1.1941529  -0.99545355   -418.79751 
   16600    421.53312    1309.7572    1300.4086    335.70989    329.91492    1.4896465  -0.52573953   -17.755439   -207.98267  -0.67206491   -19.782098    1.2032845  -0.65025213   -8.3332472   -208.06553  -0.69571459   -9.5278862    197.43561  -0.64322706   -19.818641   -1.1958404   -0.9952938   -418.79997 
   16700    421.53312    1246.7743    1242.8669    249.30556    330.47187    1.5136948  -0.58918112   -17.779334   -208.01321  -0.71964936   -19.824685    1.2528829  -0.63352638   -8.2984506   -208.05042  -0.76282944   -9.6031728    197.44386  -0.66124919   -19.812377    -1.197528  -0.99513404   -418.80242 
   16800    421.53312    1244.7783    1232.6201    229.97519    330.32107    1.5030784  -0.63315056     -17.8043   -208.00413  -0.74075254   -19.768419    1.2641726  -0.62113427    -8.303296   -208.02597  -0.82024568   -9.5725424     197.4369  -0.72207112   -19.867379   -1.1992155  -0.99497428   -418.80488 
   16900    421.53312    1271.2111    1249.4344    266.98746    330.25388    1.5349721  -0.68332205   -17.852179   -207.99511  -0.74213394   -19.816742    1.2647315   -0.7400557   -8.3727678   -208.00835  -0.83865586   -9.6041933    197.45537  -0.75965722   -19.869857    -1.200903  -0.99481452   -418.80733 
   17000    421.53312    1291.8352    1270.5616    314.75584    330.80583    1.5280776  -0.67732169   -17.842226   -207.95254  -0.76219151    -19.90875    1.2775311  -0.71211602   -8.3903414   -207.92481  -0.80846335   -9.6735802    197.46914  -0.80192175   -19.811083   -1.2025906  -0.99465477   -418.80979 
   17100    421.53312    1297.7778    1286.7411    350.91746    330.89705    1.5174586  -0.66083972   -17.865719   -207.94491  -0.78519858   -19.963509    1.2423614  -0.78933721   -8.3950172   -207.95247  -0.78062106   -9.7834888    197.45064  -0.77583655    -19.74376   -1.2042781  -0.99449501   -418.81225 
   17200    421.53312    1374.4728    1335.6264     375.0781    329.76514    1.5064254  -0.64532879   -17.923522   -207.93624  -0.76036562   -19.939597     1.218322   -0.7844288   -8.4719834   -207.91701  -0.70854107   -9.7598993    197.45217  -0.80237923   -19.824807   -1.2059656  -0.99433525    -418.8147 
   17300    421.53312    1365.3827    1289.2522    443.43331    330.47223     1.538826  -0.68337066   -17.922661   -207.91165   -0.7259493   -19.841104    1.2757584  -0.80917618   -8.4752671   -207.86667  -0.70056256   -9.6331853     197.5035  -0.78935872   -19.875547   -1.2076532  -0.99417549   -418.81716 
   17400    421.53312      1370.14    1357.3422    460.77542    330.61999    1.5460325  -0.68282962   -18.039282   -207.87237  -0.74397074   -19.838244    1.2638711  -0.80297744   -8.5738543   -207.86258  -0.70281419   -9.5951799    197.53897   -0.7225494   -19.853828   -1.2093407  -0.99401574   -418.81961 
   17500    421.53312    1438.9911    1372.1155    504.01129    330.53401    1.5451801  -0.72269466    -18.05666   -207.92185  -0.74887173   -19.885991    1.3279529   -0.8553344   -8.5223192   -207.90675  -0.70328576   -9.6293209    197.55781  -0.74566148   -19.815701   -1.2110282  -0.99385598   -418.82207 
   17600    421.53312    1451.8547    1404.7293    520.26278    330.95056    1.5221326  -0.68421033   -18.191297   -207.93003  -0.78424119   -19.895434    1.3387962   -0.7384012   -8.7616999   -207.91055   -0.7843961   -9.6200335    197.51868  -0.76573509    -19.82015   -1.2127158  -0.99369622   -418.82453 
   17700    421.53312    1427.7589    1422.7268    580.27596     331.0323    1.5015626  -0.65769912   -18.313143   -207.91456  -0.82765739   -19.883456    1.2987472  -0.68184232   -8.9355678   -207.87604  -0.83169734   -9.6271442    197.49557  -0.76860567   -19.850859   -1.2144033  -0.99353646   -418.82698 
   17800    421.53312     1522.757    1472.8629    639.63957    330.44162    1.4856705  -0.68825146   -18.351457   -207.85606  -0.87523209   -19.949443    1.2137288  -0.72266619   -8.9584191   -207.81455  -0.85670317   -9.7518565    197.53547  -0.75918549   -19.922782   -1.2160908  -0.99337671   -418.82944 
   17900    421.53312    1514.5954    1461.7162    693.24887     331.0159     1.491121  -0.68212654   -18.446249   -207.88216    -0.901077   -19.973704    1.2252678  -0.73487057    -9.027734   -207.82768  -0.85009237   -9.7737334    197.49445  -0.83997491   -19.886758   -1.2177784  -0.99321695    -418.8319 
   18000    421.53312    1530.4309    1508.6631    736.20136    330.74629    1.4565794  -0.66288238   -18.403775   -207.91083   -0.8949266   -20.006564    1.1671037  -0.73267769   -8.9623597   -207.87006  -0.93237186    -9.801545    197.42849  -0.88037092   -19.923632   -1.2194659  -0.99305719   -418.83435 
   18100    421.53312    1554.4256     1575.763    810.49038    331.32357    1.4206342   -0.6727079    -18.48265   -207.91897  -0.89315007   -19.983406    1.1700793  -0.76274653   -9.0067255   -207.89308  -0.94740459    -9.808192    197.43328  -0.89555217    -19.92069   -1.2211534  -0.99289744   -418.83681 
   18200    421.53312    1629.9658    1617.5856    894.40969    330.92625    1.4123859  -0.74281508   -18.569751   -207.91199  -0.89876435   -19.999596    1.1224684  -0.79519545   -9.1011842    -207.9118  -0.92623228   -9.8490296    197.41363  -0.93748972   -19.927544    -1.222841  -0.99273768   -418.83926 
   18300    421.53312     1649.247    1586.7237    886.49432    331.11112    1.3668626   -0.6975968   -18.566962   -207.95782  -0.92101243   -19.888208    1.0594233  -0.82966205   -9.1333238   -207.99134  -0.89750216   -9.7400184    197.43602  -0.96058754    -19.89883   -1.2245285  -0.99257792   -418.84172 
   18400    421.53312    1635.1776    1607.6815    876.97778    331.21732    1.3381128  -0.64144606   -18.549483   -207.92644  -0.96910363   -19.835099    1.0553069   -0.7367143   -9.0772075   -207.95358  -0.96115087   -9.6418315    197.42373   -0.9909049   -19.886336    -1.226216  -0.99241816   -418.84418 
   18500    421.53312    1678.9855    1620.1683    904.64173    330.65007    1.3633515  -0.52993326   -18.616288   -207.90095  -0.94940567   -19.815828    1.0721152  -0.60546209   -9.1981739   -207.93754  -0.94199851   -9.6285996    197.43247   -1.0178191   -19.811966   -1.2279036  -0.99225841   -418.84663 
   18600    421.53312    1625.0394    1575.4738    848.18404    331.09821     1.426273    -0.518862   -18.609604   -207.95218  -0.95999747   -19.768457    1.1383237  -0.56730881   -9.1658111   -207.97813  -0.94180917   -9.5312407    197.45125   -1.1116999    -19.69809   -1.2295911  -0.99209865   -418.84909 
   18700    421.53312     1605.286    1567.5237    836.43019    330.23833    1.4142058  -0.54263032   -18.548249   -207.97173   -1.0081657   -19.663929    1.0848616  -0.60390715    -9.110367    -208.0066   -1.0203839   -9.4513322    197.45966   -1.1606152   -19.700261   -1.2312786  -0.99193889   -418.85154 
   18800    421.53312    1547.7504    1509.5718    742.03886    330.85709    1.4184242  -0.50482982   -18.517014   -207.94928   -1.0867565   -19.573097    1.1368902  -0.60199184   -9.0538308   -207.97899   -1.0732802   -9.3998645    197.47405   -1.1097884   -19.764847   -1.2329662  -0.99177913     -418.854 
   18900    421.53312    1497.0106     1466.038    633.70537    330.82336    1.4756426  -0.51989844   -18.509109   -207.91647    -1.144234   -19.557349     1.242107  -0.53435567    -9.058483   -207.96553   -1.1775618   -9.3495109    197.45589   -1.0965663   -19.703494   -1.2346537  -0.99161938   -418.85646 
   19000    421.53312     1485.684    1451.2711    630.39777    330.08864    1.4986341  -0.45021706   -18.505918   -207.88929   -1.1105895   -19.533597    1.2529678  -0.46556826   -9.0170109   -207.90932   -1.1181555   -9.3184385    197.44997   -1.0266578   -19.607961   -1.2363412  -0.99145962   -418.85891 
   19100    421.53312     1411.634    1373.2226    483.63559     330.9391    1.4851045  -0.49695133   -18.572988   -207.85496    -1.137103   -19.489088    1.2510224  -0.54750005   -9.1024102   -207.86145    -1.144198   -9.2896466    197.45389   -1.0427637   -19.569453   -1.2380288  -0.99129986   -418.86137 
   19200    421.53312    1375.2231    1362.3559    453.26502    330.34595    1.4689134  -0.55567298   -18.525727     -207.873   -1.1449174   -19.454981    1.2359114  -0.58340818   -9.0234078   -207.88677   -1.1238852   -9.3038107    197.46442   -1.0829745   -19.535582   -1.2397163  -0.99114011   -418.86382 
   19300    421.53312    1363.2488    1298.8728    414.34586     330.5394    1.5150152  -0.58602317   -18.479459    -207.8849   -1.1098017    -19.33703    1.2550128  -0.65078731   -9.0841252   -207.89681   -1.1344237   -9.1983671    197.44589   -1.1161753   -19.422176   -1.2414038  -0.99098035   -418.86628 
   19400    421.53312    1342.1739    1330.5839    341.96118    330.37078    1.5281972   -0.5740138   -18.428441   -207.81659   -1.0975005   -19.260315    1.3044513  -0.62404134   -9.0364708   -207.78639   -1.1039328    -9.089469    197.41757   -1.2291678   -19.342052   -1.2430914  -0.99082059   -418.86874 
   19500    421.53312    1281.0174    1242.2162    249.33118    331.34942    1.5478662  -0.58278706   -18.465649   -207.87902   -1.1548639   -19.286119    1.3419331  -0.58727712   -9.0490113   -207.79172   -1.1331743   -9.0638582    197.42335   -1.2795673   -19.284507   -1.2447789  -0.99066083   -418.87119 
   19600    421.53312    1246.8346    1209.4422    173.55264    330.77657    1.5292797   -0.5999468   -18.460812   -207.95279   -1.2005221   -19.257071    1.3238218  -0.65806152   -9.0629066   -207.90652   -1.1939552    -9.033786    197.39971   -1.2472606    -19.21343   -1.2464664  -0.99050108   -418.87365 
   19700    421.53312    1279.7506    1208.8334    210.80774    330.16505    1.5082808  -0.60224765   -18.484368   -207.99174   -1.1348808   -19.222532    1.2343338  -0.67621282   -9.0654434   -207.97644   -1.1525336   -8.9961699    197.41412   -1.2438235   -19.184125    -1.248154  -0.99034132    -418.8761 
   19800    421.53312    1206.3182    1154.5296    161.29919    330.52718     1.504316  -0.62359762   -18.396849    -208.0359   -1.1582528    -19.22481    1.2411633  -0.73599284    -8.915893   -208.03642   -1.1550645   -8.9842831    197.42564    -1.246297   -19.180195   -1.2498415  -0.99018156   -418.87856 
   19900    421.53312    1208.1402    1183.9245    150.66333    330.44532    1.4495267  -0.67561655   -18.330477   -208.02128   -1.1338187   -19.201686     1.172686  -0.75098819   -8.8857082   -208.01324   -1.1692656   -8.9692466    197.39291   -1.1657807   -19.139872    -1.251529   -0.9900218   -418.88102 
   20000    421.53312    1230.9827    1179.4886     133.7928    330.19857    1.4035257  -0.69121488   -18.322775    -208.0233   -1.1331857   -19.228235    1.1341004  -0.81420095   -8.8677864   -208.04982   -1.2062791   -9.0336887     197.4063   -1.1462513   -19.133337   -1.2532166  -0.98986205   -418.88347 
   20100    421.53312    1223.3301    1147.0193    145.25616    330.28371    1.4125678  -0.74450251   -18.327344   -207.96609   -1.1275987   -19.199444    1.1206611  -0.89333246   -8.8558849   -208.03082   -1.1353786   -8.9520489    197.38799   -1.1751313   -19.151644   -1.2549041  -0.98970229   -418.88593 
   20200    421.53312    1211.2589    1166.7667    84.280359    330.87454     1.399275  -0.70949237   -18.286667    -207.9727   -1.1380088   -19.230901    1.0805774  -0.82650943   -8.8413578   -208.00738   -1.1701365   -9.0024639    197.40265   -1.1554449   -19.151127   -1.2565916  -0.98954253   -418.88839 
   20300    421.53312    1187.9225    1143.3042    115.63703    330.29385    1.3980151  -0.72953451   -18.280894   -207.98785   -1.1416491   -19.226599     1.144927   -0.8175098   -8.8723204   -207.96105     -1.15268   -9.0632029    197.34493   -1.1155873   -19.173062   -1.2582792  -0.98938278   -418.89084 
   20400    421.53312    1208.9229    1169.7753     93.50502    330.14047    1.3975989   -0.7517523    -18.28464   -208.02132   -1.1289688   -19.180762    1.1421235   -0.8630936   -8.8625545   -208.03945   -1.0998613   -9.0302875    197.38454   -1.1520113   -19.201969   -1.2599667  -0.98922302    -418.8933 
   20500    421.53312    1143.0993    1138.3171    58.259698    330.21611    1.4324042  -0.71712569    -18.30675   -208.00725   -1.1401454   -19.166871    1.1571796  -0.81640592   -8.8513288   -208.00569   -1.1066724   -9.0021292    197.38794   -1.1617526   -19.243746   -1.2616542  -0.98906326   -418.89575 
   20600    421.53312    1162.1601    1069.3601    10.804285    330.41368    1.4441388  -0.67626038    -18.32927   -208.00611   -1.1495174   -19.230608    1.2031585  -0.73155743   -8.8564015    -208.0303   -1.0872241   -9.0111741    197.36264   -1.1067024   -19.205035   -1.2633418   -0.9889035   -418.89821 
   20700    421.53312    1174.2324    1087.6428    30.759836    330.14959    1.4956526  -0.61414414   -18.308315   -208.02617   -1.1796501   -19.245933    1.2963764  -0.66813947   -8.9019586   -208.00735   -1.1322179   -9.0156255    197.36543   -1.0941185   -19.086618   -1.2650293  -0.98874375   -418.90067 
   20800    421.53312    1110.1606    1048.8664    -18.14949    330.97258    1.4445314   -0.6955902   -18.326825   -208.00002   -1.1684648   -19.213333    1.1998221  -0.71472438   -8.8923862   -207.94903   -1.1559717   -9.0296926    197.36555   -1.1099469   -19.088797   -1.2667168  -0.98858399   -418.90312 
   20900    421.53312    1145.6789    1082.2754   -3.5670715     329.8556    1.4541557   -0.7255536   -18.345092   -208.02753    -1.167836   -19.180014    1.2185324  -0.78257116   -8.9042612   -207.99216   -1.1400402   -8.9499591    197.35969   -1.1415063     -18.9976   -1.2684044  -0.98842423   -418.90558 
   21000    421.53312    1124.4757    1065.1663   -25.119448    330.23604    1.4492615  -0.78077498   -18.338226   -207.97698   -1.2131048   -19.131526    1.2138063  -0.88703664   -8.9248348   -207.97537   -1.2120765   -8.9611682    197.37274   -1.1913849   -19.042332   -1.2700919  -0.98826447   -418.90803 
   21100    421.53312    1093.2721     1065.975   -70.049335    330.59441    1.4631273  -0.76387187   -18.256402   -207.98658   -1.1653754   -19.044954    1.2354149  -0.80495774   -8.8800356   -208.01198   -1.1666812    -8.884844    197.44407    -1.248276   -19.069212   -1.2717795  -0.98810472   -418.91049 
   21200    421.53312    1127.1676    1065.9064   -87.936338    329.68856    1.3935393  -0.78119777   -18.201476   -207.98301   -1.1334628   -18.998232    1.1475404  -0.86026193   -8.8039727   -208.01952   -1.1590108   -8.7588728    197.48238   -1.2621744   -19.131006    -1.273467  -0.98794496   -418.91295 
   21300    421.53312     1136.084    1095.2081   -26.891492    329.76217    1.3939349   -0.6943563    -18.21379   -207.94536   -1.1459512   -19.039453    1.0896546  -0.76850232   -8.8175419   -207.96272    -1.135544   -8.7596659    197.45708   -1.2110029   -19.085853   -1.2751545   -0.9877852    -418.9154 
   21400    421.53312    1080.6964     1081.313   -52.741502    330.44655    1.3827467  -0.74175352    -18.14452   -207.93115   -1.1696632   -19.074657    1.1210003  -0.81684402   -8.7177611   -207.93705   -1.1579438   -8.8157898    197.49136   -1.0593215   -19.147411   -1.2768421  -0.98762545   -418.91786 
   21500    421.53312    1114.0702    1037.2965   -88.546969     330.1792    1.3643735  -0.80513238   -18.083278   -207.88752   -1.2297424    -19.05234    1.0805339  -0.86073208   -8.6868237   -207.90498   -1.2444909   -8.8147107    197.43895   -1.0100932    -19.16214   -1.2785296  -0.98746569   -418.92031 
   21600    421.53312     1090.749    1004.0378   -106.98686    330.71755    1.3641707  -0.81205458   -18.078431    -207.9059   -1.1762832   -19.110532    1.1268135  -0.87335736    -8.655714   -207.95306   -1.1754642   -8.8900324    197.43306   -1.0160285   -19.214643   -1.2802171  -0.98730593   -418.92277 
   21700    421.53312    1041.8597    1038.6108   -185.74894     330.7418    1.3841177  -0.82693477   -18.062761   -207.92971   -1.1055361   -19.128946    1.1131191  -0.91922843    -8.692068   -207.96466   -1.1100958   -8.9253262    197.40476   -1.0580343   -19.183419   -1.2819047  -0.98714617   -418.92523 
   21800    421.53312     1034.787    1045.8847   -140.86402     330.1688    1.3515024  -0.78079083   -17.994007   -207.97527   -1.0917337   -19.141924    1.0716443  -0.82617869   -8.6191188   -208.00214   -1.1383394   -8.9547151     197.4074   -1.0702304   -19.273541   -1.2835922  -0.98698642   -418.92768 
   21900    421.53312    1063.2311    987.11186   -168.08394    330.77939    1.3845825  -0.88080842   -17.896247   -208.06355   -1.0231786   -19.173982    1.1192382   -0.9886837   -8.4818383   -208.08459  -0.98841173   -8.9454926    197.39656   -1.0543311   -19.314391   -1.2852797  -0.98682666   -418.93014 
   22000    421.53312    1055.9026    1055.6564   -141.22153    330.23821    1.4014162  -0.92157272   -17.833029   -208.04962   -1.0612197   -19.219103    1.0969164  -0.96074224   -8.3574355   -208.06837   -1.0863088   -8.9932722    197.31539   -1.0510779   -19.286333   -1.2869673   -0.9866669   -418.93259 
   22100    421.53312    1106.0479    1058.6038   -134.34251    329.96689    1.3964726  -0.91466893   -17.727097   -208.03207   -1.0313269   -19.328019     1.107776   -1.0158139   -8.2670922   -208.04389   -1.0473332   -9.0851134    197.30546   -1.0504821   -19.294478   -1.2886548  -0.98650714   -418.93505 
   22200    421.53312    1079.7302    1063.9846   -113.80314    330.28672    1.4146585  -0.90677063   -17.683421   -208.01471   -0.9991235   -19.361741     1.145843   -1.0217125    -8.279081   -207.99559   -1.0010304   -9.1736428    197.26748   -1.0193948   -19.300066   -1.2903423  -0.98634739   -418.93751 
   22300    421.53312    1075.3204    1069.4127   -136.50153    330.22954    1.3807394  -0.87513939   -17.672102   -208.03728   -1.0189278   -19.382924     1.081137  -0.88651873   -8.2538116   -207.97644   -1.0268184   -9.1903646    197.27697   -1.0653643   -19.369966   -1.2920299  -0.98618763   -418.93996 
   22400    421.53312    1028.0429    991.35016   -219.31614    330.71345     1.339312  -0.90596765   -17.656169   -208.06868   -1.0314477   -19.439066    1.0454917  -0.95999544   -8.2695651   -208.01957   -1.0166884   -9.3208806    197.25172   -1.0253178   -19.462268   -1.2937174  -0.98602787   -418.94242 
[...]
  999000    421.53312    1137.3665    1134.2722   -30.229705    330.81447   -15.070649   0.76133183   -42.771586   -224.54598   0.41528882   -43.483306   -15.349637   0.65155659   -33.463643   -224.53223   0.45613634   -33.281423    180.75298   0.40562912   -43.456193   -17.774172   0.57416175   -442.92856 
  999100    421.53312    1124.9511     1098.649   -18.196289    330.72675   -15.092106   0.77852698    -42.81341   -224.56904   0.44107669   -43.469528    -15.38917   0.67259948   -33.492368   -224.59554   0.45434992    -33.29121    180.74863   0.38112232   -43.438501   -17.775859   0.57432151   -442.93101 
  999200    421.53312    1147.7652    1125.9112   -68.208854    330.55023   -15.115348   0.83071674   -42.807492   -224.60589   0.44333155   -43.396836   -15.418753   0.75869845   -33.532795   -224.61706   0.46361201   -33.236505    180.75803   0.36810034   -43.422445   -17.777547   0.57448126   -442.93347 
  999300    421.53312     1107.537    1061.4819   -96.717049     331.1629   -15.090602   0.80902373   -42.804819   -224.55409   0.42839149   -43.384696   -15.370114    0.7508038    -33.54448   -224.57259   0.43285886   -33.198399    180.78529   0.38358501   -43.431899   -17.779234   0.57464102   -442.93592 
  999400    421.53312    1133.7309    1085.9879   -74.075954    330.50561    -15.07795   0.83967977   -42.846318   -224.50805   0.42006763   -43.386211   -15.308898   0.81295492   -33.577037   -224.52576   0.42217759   -33.219396    180.75889   0.48346885   -43.419245   -17.780922   0.57480078   -442.93838 
  999500    421.53312    1136.0056     1075.291    -86.28614    330.75954   -15.135309    0.8928491   -42.861811   -224.50586   0.43786731   -43.408523   -15.345027   0.84490581   -33.589312   -224.50089   0.47676554   -33.267395    180.80674   0.43169919   -43.452675   -17.782609   0.57496054   -442.94084 
  999600    421.53312    1095.9185    1066.0063   -147.53331    330.25941   -15.092374   0.83834206   -42.836436   -224.49124   0.51556033   -43.400683   -15.338631   0.79117304    -33.54223   -224.49132    0.5106044   -33.243207    180.82366   0.42563756    -43.44719   -17.784297   0.57512029   -442.94329 
  999700    421.53312    1102.6586    1064.6058   -131.13311    329.99758   -15.077941   0.85923678   -42.840681   -224.46676   0.51599991   -43.407755   -15.365621   0.76185939   -33.526149    -224.4521   0.49579019   -33.252187    180.81659    0.4294012   -43.457168   -17.785984   0.57528005   -442.94575 
  999800    421.53312    1081.3494     1016.956   -143.92876     330.3708   -15.020965   0.83871136   -42.890204   -224.48926   0.46194273   -43.426659   -15.285373   0.73518584   -33.631323   -224.48347   0.44086686    -33.22849     180.8907   0.42808149   -43.464448   -17.787672   0.57543981    -442.9482 
  999900    421.53312    1065.4515    1016.1657   -147.84417    330.47335   -15.003656   0.86154779   -42.891229   -224.44692   0.45945912   -43.395777   -15.278963   0.76053014   -33.598128   -224.42972   0.46035067   -33.218805    180.87601   0.46742131   -43.429339    -17.78936   0.57559956   -442.95066 
 1000000    421.53312    1090.5137    1018.2788   -182.07039    330.43492   -15.092046   0.91299681   -42.891124   -224.44344    0.4006988   -43.364543   -15.365569   0.82954242    -33.56533   -224.43193   0.37967632   -33.201819    180.87908   0.48264835   -43.431414   -17.791047   0.57575932   -442.95312 
 1000100    421.53312      1055.31     1051.807   -184.73804    330.36713   -15.115043     0.967592   -42.908578   -224.43058   0.41328081   -43.353178   -15.376935   0.90423515   -33.614901    -224.4823   0.40637181   -33.171003     180.8625   0.43328598   -43.476919   -17.792735   0.57591908   -442.95557 
 1000200    421.53312    1006.1501     981.5245   -202.02807    330.97438   -15.085213   0.94141213   -42.911988   -224.46854   0.46637285   -43.322479   -15.362512   0.87147412   -33.650728   -224.48959   0.42059456   -33.187002    180.84531    0.4183976   -43.486275   -17.794422   0.57607884   -442.95803 
 1000300    421.53312      1067.45    1019.1311   -227.28849    330.37173   -15.097563    0.9075436   -42.927144   -224.45485   0.42883383   -43.354576   -15.368146   0.87518419   -33.624165   -224.44603    0.3961469   -33.167674    180.86845   0.42993416   -43.432309    -17.79611   0.57623859   -442.96048 
 1000400    421.53312    1034.7751    1032.6476   -273.78477    330.39166   -15.109677   0.91846527   -42.933379   -224.44813   0.44247261    -43.41532   -15.323044   0.89461179    -33.62977   -224.40938   0.40881898   -33.272292    180.87323   0.47887644   -43.443691   -17.797797   0.57639835   -442.96294 
 1000500    421.53312    994.07899    1005.4333   -294.38607    330.71953   -15.109284   0.96894307   -42.964934   -224.44648   0.47108768   -43.435086   -15.314804   0.92626009   -33.672231   -224.43639   0.46951808   -33.278082    180.85319   0.51619548    -43.41909   -17.799485   0.57655811    -442.9654 
 1000600    421.53312     1019.339    1012.6647   -289.92285    330.50831   -15.084385   0.95559934   -42.945499   -224.48688   0.52168568   -43.443093   -15.299313    0.8383294   -33.620821   -224.50442   0.55159686   -33.279703    180.85681   0.55716741   -43.355739   -17.801172   0.57671787   -442.96785 
 1000700    421.53312    1012.2157    986.47851   -255.83068    330.29215   -15.080918   0.99874703   -42.882454    -224.5124   0.55572995   -43.500052   -15.303787   0.93049534   -33.609611   -224.47866   0.56331565   -33.352869    180.83815   0.56062923   -43.389842    -17.80286   0.57687762   -442.97031 
 1000800    421.53312    998.78478    977.93067   -276.13697     330.7886   -15.115575   0.99358634   -42.889931   -224.53892   0.58630094   -43.495381   -15.344278   0.92113299   -33.633283   -224.51913   0.59100584   -33.328452    180.81686   0.56661155   -43.322264   -17.804547   0.57703738   -442.97276 
 1000900    421.53312    981.52203    959.36728   -292.26192     330.7247   -15.119202   0.93068846   -42.905722   -224.51117    0.5718943   -43.477409   -15.361826   0.84564714   -33.641135   -224.51641   0.58422967   -33.283103    180.80432   0.58356539   -43.392683   -17.806235   0.57719714   -442.97522 
 1001000    421.53312    1006.1595    950.06413   -323.91319     330.9923   -15.087453   0.93009194   -42.866453   -224.51844   0.51598753   -43.456319   -15.378233   0.84800339   -33.571642   -224.56309   0.53920829   -33.301268    180.81996   0.61417904   -43.418782   -17.807922   0.57735689   -442.97768 
 1001100    421.53312    996.31891    979.37428   -298.36676    330.27293   -15.099731   0.92177411    -42.77303   -224.54885   0.47208169   -43.466512   -15.366965   0.84481651   -33.467017   -224.60424   0.50349674    -33.31339    180.84224   0.56188963   -43.506255    -17.80961   0.57751665   -442.98013 
 1001200    421.53312    975.89282    981.17396   -328.70001    330.60245   -15.100014   0.94932374   -42.769251   -224.50548   0.47727622   -43.464467   -15.353061   0.87192944   -33.512839   -224.55878    0.5406941   -33.284922    180.81812   0.51330628   -43.498089   -17.811297   0.57767641   -442.98259 
 1001300    421.53312    1011.6102     962.3351   -291.60765    330.43249   -15.092743   0.91633078   -42.833096   -224.47791   0.50688565   -43.442204   -15.362361   0.83169233   -33.517765   -224.47687   0.53043215   -33.243183    180.83712   0.43695045   -43.502748   -17.812985   0.57783617   -442.98505 
 1001400    421.53312    1023.3102    1001.6237   -273.22813    330.29885    -15.11611   0.89450823   -42.812411   -224.46841   0.52508811   -43.510412   -15.366904   0.84553119   -33.471887   -224.42291   0.52699074   -33.328688    180.87503   0.41077955   -43.550301   -17.814673   0.57799592    -442.9875 
 1001500    421.53312    1014.9246    1007.0858   -276.12285    330.06365   -15.112922    0.8731059   -42.834903   -224.46755   0.50762828   -43.494084   -15.404472   0.81457785   -33.557786   -224.38327   0.49384952   -33.343778    180.85504   0.42578361   -43.531029    -17.81636   0.57815568   -442.98996 
 1001600    421.53312     1025.642    968.00454   -338.87702    330.36965    -15.08899   0.87594583   -42.858347   -224.47854   0.43350709   -43.495879    -15.35667   0.80307782   -33.627389   -224.40635   0.38074096   -33.362071    180.84736   0.47035881   -43.427511   -17.818048   0.57831544   -442.99241 
 1001700    421.53312    994.87647    969.16585   -316.35503    330.52708   -15.024652    0.8904984   -42.812003   -224.46709   0.41333461   -43.476118   -15.295764   0.80305751   -33.577053   -224.46984    0.3715464    -33.29548    180.82658   0.47324653   -43.463843   -17.819735    0.5784752   -442.99487 
 1001800    421.53312    987.98798      984.746    -304.3869     330.6736   -15.082757   0.85774512   -42.812931   -224.48713   0.42587501   -43.446946   -15.339969   0.82133409   -33.559523   -224.48869   0.41815876   -33.314179    180.79288   0.41227346   -43.445077   -17.821423   0.57863495   -442.99733 
 1001900    421.53312    991.65392    956.82428   -293.93526    330.50694   -15.082217   0.86015923   -42.810582   -224.53227   0.43143729   -43.443666   -15.303707   0.86458531   -33.509764   -224.57085    0.4736709   -33.280944     180.8005    0.4094225   -43.406357    -17.82311   0.57879471   -442.99978 
 1002000    421.53312    988.39897    973.38545   -320.38911     330.1823     -15.0846   0.81087229   -42.792095   -224.53331   0.41560343   -43.486701   -15.308656   0.78553305   -33.457499   -224.51283   0.45505688   -33.342038    180.80334   0.42124257   -43.416542   -17.824798   0.57895447   -443.00224 
 1002100    421.53312    943.07575    938.43386   -396.22888    330.18269   -15.064179   0.75375989   -42.781665   -224.50028   0.44817046   -43.418947   -15.330623    0.6767751   -33.452049   -224.51223    0.4586655   -33.274365    180.78503    0.4302472   -43.379771   -17.826485   0.57911422   -443.00469 
 1002200    421.53312    906.72491    888.19026   -424.59738    330.90621   -15.047671   0.75997144   -42.799496   -224.53543   0.51826332   -43.384753   -15.303061   0.68398288   -33.503819   -224.55405   0.51418797   -33.226827    180.78532   0.41077733   -43.402701   -17.828173   0.57927398   -443.00715 
 1002300    421.53312    922.27679    892.92759    -459.0981    330.43744   -15.025818   0.77309338   -42.812874   -224.55202    0.5453984   -43.357667   -15.294691   0.74162683   -33.507872    -224.6089   0.52674508   -33.179457    180.79517   0.41598332   -43.450932    -17.82986   0.57943374   -443.00961 
 1002400    421.53312    904.80354    870.56043   -500.42773    330.87808   -15.004959   0.78623619   -42.841384   -224.54251   0.51204127   -43.337847   -15.247727   0.67454283   -33.562369   -224.57905   0.46944322    -33.16711    180.76484   0.47240287   -43.358262   -17.831548    0.5795935   -443.01206 
 1002500    421.53312    923.55552    916.12851   -407.68356    329.65628   -15.030945   0.71865901   -42.879997   -224.58453   0.50626768   -43.329114   -15.304497   0.62089037   -33.618832   -224.61514    0.5132915   -33.108166    180.79259   0.51213018   -43.332022   -17.833235   0.57975325   -443.01452 
 1002600    421.53312    931.52303    890.28859   -461.95813    330.55957   -15.008934     0.670945   -42.914132   -224.59465    0.5191749   -43.341667   -15.268882    0.6165344   -33.661582   -224.64887   0.51846745   -33.143776     180.7629   0.52497571   -43.378126   -17.834923   0.57991301   -443.01697 
 1002700    421.53312    936.75614    906.99719   -443.74738    330.01228    -15.01316   0.72810435   -42.910415   -224.56334   0.48429013   -43.337729   -15.315214   0.62940218   -33.662189   -224.58958   0.52059643   -33.207848     180.7368   0.52767565   -43.379504   -17.836611   0.58007277   -443.01943 
 1002800    421.53312    910.58581    898.64489   -428.75857    330.34836   -15.066083   0.68970416   -42.846189   -224.60029   0.49752172   -43.343361   -15.353652   0.58393341   -33.605133   -224.59769   0.49476263   -33.185051    180.71379   0.57241057    -43.34271   -17.838298   0.58023253   -443.02189 
 1002900    421.53312    940.33971    916.63393   -403.25985    330.13344   -15.084555   0.70566543   -42.811418   -224.58828   0.54405309    -43.37678   -15.326364   0.65672032   -33.541458   -224.58869   0.58266392   -33.251933    180.69402   0.57219515   -43.308687   -17.839986   0.58039228   -443.02434 
 1003000    421.53312    937.05005    907.76555   -418.15832    330.14796   -15.129748   0.68387307   -42.807435   -224.58891   0.56769613   -43.402061   -15.384569    0.6173459   -33.484444    -224.5566   0.57720516    -33.25877    180.70957   0.61959745   -43.322666   -17.841673   0.58055204    -443.0268 
 1003100    421.53312    948.25957    917.92311   -409.07177    330.00435   -15.119165   0.67160302   -42.809349     -224.568   0.56747189   -43.420145   -15.395081    0.5924889   -33.495729   -224.51993   0.55048287    -33.28244    180.71974   0.62253415   -43.367163   -17.843361    0.5807118   -443.02925 
 1003200    421.53312    925.09119    915.50744   -395.24299    330.79046   -15.133837   0.66586509   -42.830591   -224.55628    0.5750529     -43.3855   -15.410986    0.6198857   -33.537243   -224.56679    0.5322557   -33.224074    180.76337   0.61320156   -43.344986   -17.845048   0.58087155   -443.03171 
 1003300    421.53312    928.19821    893.92819   -398.88429    331.14412   -15.124139    0.6686039   -42.810493   -224.53784   0.60235636   -43.387393   -15.377929   0.59038795   -33.526223   -224.49616    0.5869725   -33.212744    180.78591   0.59644027   -43.369191   -17.846736   0.58103131   -443.03417 
 1003400    421.53312    952.50057    924.47789    -391.1874     330.8773   -15.122028   0.69983921   -42.845429   -224.51887   0.55601899    -43.44397   -15.346043   0.66185904   -33.550008   -224.52021   0.60479764   -33.280886    180.81363   0.50072596   -43.431484   -17.848423   0.58119107   -443.03662 
 1003500    421.53312    980.37054    943.44803   -345.40087    330.26962   -15.190389     0.682886    -42.85519    -224.4711   0.51336768   -43.463766   -15.440714   0.61702111   -33.586835   -224.45789   0.54663397   -33.287939    180.81078   0.50125135   -43.437854   -17.850111   0.58135083   -443.03908 
 1003600    421.53312    979.86971    961.35546   -337.05707    330.40743   -15.201445   0.67565318   -42.805768   -224.44701   0.50292543   -43.512252   -15.485721    0.5762476   -33.495488   -224.46888   0.50606968   -33.303401    180.82969   0.52210828   -43.460338   -17.851798   0.58151058   -443.04154 
 1003700    421.53312     971.9118    932.69571   -368.53634    330.76422    -15.20076   0.66810333   -42.812931   -224.45588   0.47150271    -43.48952   -15.513265   0.55708877    -33.49671   -224.44843   0.44864283    -33.31257    180.82303   0.53370974   -43.531914   -17.853486   0.58167034   -443.04399 
 1003800    421.53312    933.36799     888.7729   -398.19672    330.97428   -15.198232   0.75124954   -42.834298   -224.46013   0.51060315   -43.484453   -15.502675   0.69793976    -33.54987   -224.43629   0.51627166   -33.343938    180.84294   0.50915094   -43.558322   -17.855173    0.5818301   -443.04645 
 1003900    421.53312    976.44853    966.48831   -358.75204    330.20744   -15.177162   0.76552049   -42.873175   -224.44413   0.56749975   -43.506133    -15.46982   0.72527403   -33.594173   -224.42916   0.58514204    -33.37112    180.86759    0.4914932    -43.54816   -17.856861   0.58198986    -443.0489 
 1004000    421.53312    947.53335    933.62096   -357.76402    331.12871   -15.159713   0.77933986   -42.932215   -224.42552   0.57248152   -43.546665   -15.389024   0.67390782   -33.653067   -224.39355   0.52427611   -33.424516    180.88463   0.48198771   -43.511313   -17.858548   0.58214961   -443.05136 
 1004100    421.53312    949.45297    939.90016   -334.95236    330.94301   -15.196043   0.73296556    -42.95497   -224.39996   0.51441035   -43.547428   -15.424604   0.60575779   -33.694875    -224.3995   0.47562104   -33.424831    180.89982   0.54711235   -43.536331   -17.860236   0.58230937   -443.05382 
 1004200    421.53312    1021.9605    995.67866   -283.41497    330.08191   -15.220017   0.75219589   -42.975601   -224.38947   0.51965722    -43.55578   -15.483476   0.59594515   -33.752949   -224.38913    0.5250533   -33.348087     180.8707    0.5616199   -43.562357   -17.861924   0.58246913   -443.05627 
 1004300    421.53312    989.52459    999.88442   -286.95422    330.20812   -15.232708   0.70956824   -42.974849   -224.43897   0.49357952   -43.520328   -15.485453   0.61002448    -33.72953   -224.43499   0.55156764   -33.280898    180.88188   0.50986241   -43.582064   -17.863611   0.58262888   -443.05873 
 1004400    421.53312    1003.9036    982.57275   -287.15338    330.39804   -15.236847   0.77402794   -42.999471   -224.48777   0.47438811    -43.54409    -15.49508   0.67386184   -33.699789   -224.49675   0.52489183    -33.38536    180.89659   0.46245011   -43.611593   -17.865299   0.58278864   -443.06118 
 1004500    421.53312    1014.4361    1008.2432   -241.64128    329.98068   -15.298782   0.77980521    -43.03797   -224.53224   0.46747276   -43.548135    -15.54705   0.73001772   -33.673219   -224.59235   0.47321814   -33.399282    180.88067   0.48488119   -43.459972   -17.866986    0.5829484   -443.06364 
 1004600    421.53312    1032.8584    968.29898   -250.51547    331.14935   -15.279176   0.80149816   -43.053364   -224.48013   0.42785542   -43.528785   -15.541858   0.75259543   -33.737775   -224.53554   0.42282145    -33.36618     180.8618   0.45456511   -43.393614   -17.868674   0.58310816    -443.0661 
 1004700    421.53312    1026.4915    997.53417   -238.19406    330.68013   -15.276921   0.74358602   -42.969999   -224.48529   0.41144326   -43.434519   -15.513621   0.70164623   -33.665305   -224.47392   0.38699759    -33.24595    180.82469   0.44689542   -43.385411   -17.870361   0.58326791   -443.06855 
 1004800    421.53312    1053.8315    1041.8227   -261.10312    330.58647   -15.236698   0.75688639   -42.971233    -224.4968   0.42438719   -43.387184   -15.481725    0.7396559   -33.689151   -224.46839   0.40426326   -33.200386    180.76404   0.43947464   -43.426243   -17.872049   0.58342767   -443.07101 
 1004900    421.53312    1063.0418    1016.4381   -197.23834    330.77291   -15.270171   0.71518826   -42.944687   -224.56207   0.45140364   -43.343183   -15.546842    0.6995807   -33.709976   -224.51578   0.42130714   -33.130484    180.75284   0.43013897   -43.430645   -17.873736   0.58358743   -443.07346 
 1005000    421.53312    1054.0435    1026.0507   -217.53384    330.80976   -15.316532   0.71970787   -42.980112   -224.59099   0.47093337   -43.408657   -15.593921   0.64126707   -33.731881   -224.58843   0.45913152   -33.211105     180.7754    0.4160151   -43.440092   -17.875424   0.58374719   -443.07592 
Loop time of 5859.59 on 512 procs for 1000000 steps with 346878 atoms

Performance: 29.490 ns/day, 0.814 hours/ns, 170.661 timesteps/s
99.9% CPU use with 512 MPI tasks x no OpenMP threads

MPI task timing breakdown:
Section |  min time  |  avg time  |  max time  |%varavg| %total
---------------------------------------------------------------
Pair    | 1401.5     | 3729.5     | 4005.3     | 881.8 | 63.65
Neigh   | 2.2057     | 29.56      | 33.223     | 127.8 |  0.50
Comm    | 576.34     | 720.06     | 1346.6     | 544.8 | 12.29
Output  | 5.1439     | 5.3708     | 5.8306     |   1.3 |  0.09
Modify  | 41.074     | 44.149     | 54.014     |  33.0 |  0.75
Other   |            | 1331       |            |       | 22.71

Nlocal:    677.496 ave 728 max 0 min
Histogram: 16 0 0 0 2 30 0 0 0 464
Nghost:    2832.12 ave 3240 max 0 min
Histogram: 16 0 0 0 32 0 0 0 0 464
Neighs:    47750.7 ave 52453 max 0 min
Histogram: 16 0 0 16 16 0 0 0 0 464

Total # of neighbors = 24448356
Ave neighs/atom = 70.4811
Neighbor list builds = 11094
Dangerous builds = 0



Total wall time: 1:40:22
