LAMMPS data file via write_data, version 28 Jun 2014, timestep = 20000

6384 atoms
1 atom types

-2.8324636233589576e+01 2.8324636233589576e+01 xlo xhi
-8.0927532095969941e+00 8.0927532095969941e+00 ylo yhi
-1.5340704541016663e+02 2.0587148596166614e+01 zlo zhi

Masses

1 26.982

Atoms # atomic

2 1 -2.6538354961751157e+01 -6.0784574200540318e+00 -1.1331397786315702e+02 0 0 0
8 1 -2.4341011005493527e+01 -6.0846308451677000e+00 -1.1111924447084230e+02 0 0 0
31 1 -2.6353711913175381e+01 -3.9314668361104022e+00 -1.1111162224741236e+02 0 0 0
33 1 -2.4291173897490360e+01 -3.9473124412480893e+00 -1.1305686990667461e+02 0 0 0
5 1 -2.4440958273050068e+01 -8.0532722798290735e+00 -1.1327502089524550e+02 0 0 0
6 1 -2.2238435247342757e+01 -6.0707163673223699e+00 -1.1297920185828086e+02 0 0 0
12 1 -2.0164809288493828e+01 -5.9611827342470871e+00 -1.1103427963526383e+02 0 0 0
35 1 -2.2196624237407761e+01 -4.0285282091497097e+00 -1.1116152933463557e+02 0 0 0
37 1 -2.0375584766067163e+01 -4.1374937905290095e+00 -1.1320928409203005e+02 0 0 0
9 1 -2.0035337999448473e+01 -7.9512552890588433e+00 -1.1309830626695162e+02 0 0 0
7 1 -2.2376829482470416e+01 8.0469144807209663e+00 -1.1122001410569615e+02 0 -1 0
10 1 -1.8121678857001587e+01 -5.9628431220329325e+00 -1.1330933388680351e+02 0 0 0
16 1 -1.6153246078956634e+01 -5.8853487178334918e+00 -1.1129460982976704e+02 0 0 0
39 1 -1.8336322066434647e+01 -3.9927959691775778e+00 -1.1143026108661255e+02 0 0 0
41 1 -1.6195275280430170e+01 -3.8936486991294270e+00 -1.1334981831807946e+02 0 0 0
14 1 -1.4095329294276642e+01 -5.9987190002210218e+00 -1.1327376024909164e+02 0 0 0
13 1 -1.6006174590811170e+01 -7.9178115483856981e+00 -1.1330025786938982e+02 0 0 0
11 1 -1.8123710279580013e+01 -7.9768554174369894e+00 -1.1120401418525817e+02 0 0 0
43 1 -1.4309508587220471e+01 -3.8254834202351020e+00 -1.1153137079574587e+02 0 0 0
18 1 -1.0094890103194260e+01 -6.1686124138768994e+00 -1.1343457787592523e+02 0 0 0
20 1 -1.2199514631586819e+01 -6.1418622000433567e+00 -1.1133356747896460e+02 0 0 0
45 1 -1.2056342176955338e+01 -4.0901104755430584e+00 -1.1321190107877995e+02 0 0 0
47 1 -1.0166545347769954e+01 -4.0527459358627045e+00 -1.1136150175631042e+02 0 0 0
19 1 -1.0111031777221566e+01 7.9803225014141841e+00 -1.1150643074183485e+02 0 -1 0
22 1 -6.2033234924589102e+00 -6.0363718374344364e+00 -1.1304216881293351e+02 0 0 0
24 1 -8.2334417862967637e+00 -6.2117488048876313e+00 -1.1142355534474014e+02 0 0 0
49 1 -8.2013174055352884e+00 -4.0125091859531157e+00 -1.1340262323043079e+02 0 0 0
51 1 -6.3299584596075515e+00 -3.9738673532119932e+00 -1.1128138350631136e+02 0 0 0
23 1 -6.1598197015366019e+00 8.0874076917445432e+00 -1.1110140921913346e+02 0 -1 0
21 1 -8.0696445367457024e+00 8.0501247498428175e+00 -1.1337247794955999e+02 0 -1 0
26 1 -2.1617184368141276e+00 -5.9225883193034550e+00 -1.1353282437066876e+02 0 0 0
28 1 -4.0766538654699405e+00 -6.1244627642306506e+00 -1.1108746710303555e+02 0 0 0
53 1 -4.1321059741320303e+00 -4.0795767810165806e+00 -1.1294166706066109e+02 0 0 0
55 1 -1.9789650427778083e+00 -3.9963582439339045e+00 -1.1123011631313672e+02 0 0 0
3196 1 -2.9230197386938034e-01 -6.0847622194043653e+00 -1.1132352879709521e+02 0 0 0
25 1 -4.2386973373657311e+00 -7.9824901587267432e+00 -1.1327031403780430e+02 0 0 0
3193 1 -3.5255713263678140e-01 -8.0182219502965495e+00 -1.1319467194909761e+02 0 0 0
3221 1 -4.1936409544226089e-02 -4.0442128745008183e+00 -1.1323200129779238e+02 0 0 0
30 1 -2.6318505375841877e+01 -1.9477113256596374e+00 -1.1321012340564802e+02 0 0 0
36 1 -2.4359862881256518e+01 -1.9166923039048753e+00 -1.1115538088529189e+02 0 0 0
58 1 -2.6370448703142642e+01 2.1412987806670905e+00 -1.1320530690324495e+02 0 0 0
59 1 -2.6167341115914894e+01 1.2665171903212485e-01 -1.1121538482359907e+02 0 0 0
61 1 -2.4315105907066169e+01 -1.8954174214344015e-02 -1.1342437249456907e+02 0 0 0
64 1 -2.4406679116107767e+01 2.1173329656631963e+00 -1.1127383931061442e+02 0 0 0
32 1 -2.8307534870894649e+01 -2.1067836090548360e+00 -1.1114373247850389e+02 0 0 0
34 1 -2.2186603701525684e+01 -1.9909563111528152e+00 -1.1301673924514763e+02 0 0 0
40 1 -2.0265416132183326e+01 -1.9083910446064836e+00 -1.1120497943850037e+02 0 0 0
62 1 -2.2523391911044090e+01 2.0780169736278982e+00 -1.1303075072500361e+02 0 0 0
63 1 -2.2363625203209065e+01 1.0851448188195595e-01 -1.1116984237726497e+02 0 0 0
65 1 -2.0400466268992105e+01 3.2853119671848069e-01 -1.1317730911830274e+02 0 0 0
68 1 -2.0325794617022744e+01 2.1198698212316618e+00 -1.1114753806546304e+02 0 0 0
38 1 -1.8506891147013231e+01 -1.7239339037576324e+00 -1.1324930642089053e+02 0 0 0
44 1 -1.6461005989581139e+01 -1.8758288690172589e+00 -1.1149085942311744e+02 0 0 0
66 1 -1.8371766664972792e+01 2.0017255347744221e+00 -1.1345939941629945e+02 0 0 0
67 1 -1.8333163677207246e+01 2.4600921460312425e-01 -1.1125482240665924e+02 0 0 0
69 1 -1.6282446687024954e+01 4.6935057433252686e-02 -1.1334678557714760e+02 0 0 0
72 1 -1.6273295902777846e+01 2.0753835550734134e+00 -1.1141917791579762e+02 0 0 0
42 1 -1.4054488244781011e+01 -1.9040184087299747e+00 -1.1341568378849529e+02 0 0 0
70 1 -1.4274758464722300e+01 1.9993515563708755e+00 -1.1337635366935473e+02 0 0 0
71 1 -1.4278669112966684e+01 -4.2284299551099337e-02 -1.1113648859674196e+02 0 0 0
46 1 -1.0297376648651213e+01 -1.7422206173380601e+00 -1.1324895460860672e+02 0 0 0
48 1 -1.2058959255775591e+01 -1.9938534660498026e+00 -1.1137021192859000e+02 0 0 0
73 1 -1.2169438473476115e+01 1.6659890523938084e-01 -1.1325662526213131e+02 0 0 0
74 1 -1.0128771594879039e+01 1.9767932297509405e+00 -1.1339462576604568e+02 0 0 0
75 1 -1.0051720089929118e+01 9.9071038962212463e-02 -1.1122934825282253e+02 0 0 0
76 1 -1.2315010755447513e+01 2.0608586652051839e+00 -1.1121951972819129e+02 0 0 0
50 1 -5.9477111408580221e+00 -2.0100937769652405e+00 -1.1327924111868863e+02 0 0 0
52 1 -8.2428054284511241e+00 -2.0348864693375237e+00 -1.1139660342180719e+02 0 0 0
77 1 -8.0371054697394975e+00 -1.1274360590354843e-01 -1.1335042587022822e+02 0 0 0
78 1 -6.0193575432458646e+00 1.9321635133211361e+00 -1.1326388380394178e+02 0 0 0
79 1 -6.2079912969886362e+00 2.3589086990917454e-02 -1.1111619870166437e+02 0 0 0
80 1 -8.0773917024267465e+00 1.9467378889357205e+00 -1.1133288675719902e+02 0 0 0
54 1 -2.0760550626106347e+00 -2.0807052313453323e+00 -1.1338478662679209e+02 0 0 0
56 1 -4.2563654751018527e+00 -1.9419606355479535e+00 -1.1122545863527961e+02 0 0 0
81 1 -4.0002312319288098e+00 7.5210463429785518e-02 -1.1326847261841611e+02 0 0 0
82 1 -1.9541547412081792e+00 1.9483502012242413e+00 -1.1315949832594544e+02 0 0 0
83 1 -2.0676816879573270e+00 -1.0292024228216791e-01 -1.1121957167598417e+02 0 0 0
84 1 -4.1732229016570708e+00 2.1129297124950610e+00 -1.1123597817526763e+02 0 0 0
840 1 -2.0022069295664133e+00 5.8856201137030446e+00 -8.4816803775552302e+01 0 0 0
839 1 -4.0807708964342657e+00 3.9685632558047472e+00 -8.4740324333440313e+01 0 0 0
3224 1 -2.2127872182153216e-02 -2.1012308488049913e+00 -1.1106659487290612e+02 0 0 0
3 1 -2.6297024653574113e+01 8.0765232546281229e+00 -1.1120585654928350e+02 0 -1 0
86 1 -2.6281684353610220e+01 6.1477917823131580e+00 -1.1334763950577864e+02 0 0 0
87 1 -2.6290716087938009e+01 4.1688590439957114e+00 -1.1115483359844833e+02 0 0 0
89 1 -2.4420047482434022e+01 4.1383445510358721e+00 -1.1350932029630557e+02 0 0 0
92 1 -2.4281525176630044e+01 6.0027519519780794e+00 -1.1113258776942554e+02 0 0 0
90 1 -2.2145318813087844e+01 6.1545624331662268e+00 -1.1314213354310496e+02 0 0 0
91 1 -2.2263878716906007e+01 4.2426128197643802e+00 -1.1116489641444947e+02 0 0 0
93 1 -2.0129336791188358e+01 3.9157290832010010e+00 -1.1319790192655337e+02 0 0 0
96 1 -2.0106218527913935e+01 6.2361784450403448e+00 -1.1112263585540992e+02 0 0 0
94 1 -1.8015626319709902e+01 6.2521442054680767e+00 -1.1338150434376587e+02 0 0 0
95 1 -1.8046369117500447e+01 3.9494552672938648e+00 -1.1110491449012376e+02 0 0 0
97 1 -1.6400773181947002e+01 3.9247838857151103e+00 -1.1348360694654029e+02 0 0 0
100 1 -1.6237430719980903e+01 6.0362499368984892e+00 -1.1116122774217615e+02 0 0 0
98 1 -1.4275937785365628e+01 5.8340326285189548e+00 -1.1343390155994915e+02 0 0 0
15 1 -1.4207848951841768e+01 8.0218890493820894e+00 -1.1144245312441387e+02 0 -1 0
17 1 -1.2232041980481426e+01 7.8090722771393848e+00 -1.1351217103938802e+02 0 -1 0
99 1 -1.4364678598931018e+01 4.0025068885131034e+00 -1.1139102722585423e+02 0 0 0
101 1 -1.2181398354305339e+01 3.8174955529685124e+00 -1.1337583869210873e+02 0 0 0
102 1 -1.0095507109799673e+01 5.8974687481439894e+00 -1.1329768217858856e+02 0 0 0
103 1 -1.0043536641585030e+01 3.9361999517413073e+00 -1.1135834471958439e+02 0 0 0
104 1 -1.2061999565655427e+01 6.0270532269147887e+00 -1.1133543857212865e+02 0 0 0
105 1 -8.0696905915267685e+00 4.0170845532782540e+00 -1.1329782309025983e+02 0 0 0
106 1 -6.1857846980090319e+00 6.1690072616516858e+00 -1.1329763928153635e+02 0 0 0
107 1 -6.2290056067161226e+00 3.9610194067003404e+00 -1.1124841980858275e+02 0 0 0
108 1 -8.1721695193125932e+00 5.9863771037740792e+00 -1.1121281059484872e+02 0 0 0
27 1 -2.2419729621660531e+00 -8.0201246268533186e+00 -1.1128094781983368e+02 0 0 0
109 1 -4.1177044910047735e+00 4.0305383682432021e+00 -1.1305170347120372e+02 0 0 0
110 1 -2.2364518405348406e+00 5.9940081605123536e+00 -1.1334376807437985e+02 0 0 0
111 1 -2.2165131690288669e+00 4.2481264374672918e+00 -1.1113621413696580e+02 0 0 0
112 1 -4.2549004784909892e+00 6.2008866534747584e+00 -1.1113562112422404e+02 0 0 0
3280 1 -1.6698129776640913e-01 6.2760447706640861e+00 -1.1109294906644955e+02 0 0 0
3277 1 -2.8031799085303383e-01 4.2675737825090581e+00 -1.1292454904780863e+02 0 0 0
114 1 -2.6273044811319483e+01 -6.1813907737644840e+00 -1.0910630632290932e+02 0 0 0
120 1 -2.4453322769081858e+01 -5.9424616126101064e+00 -1.0703967937354797e+02 0 0 0
143 1 -2.6149332842526249e+01 -3.9499742956444690e+00 -1.0714109214042325e+02 0 0 0
145 1 -2.4202759204168579e+01 -3.8917845856682693e+00 -1.0932062774160575e+02 0 0 0
141 1 -2.8125494941952461e+01 -4.0476197087729160e+00 -1.0896816836762233e+02 0 0 0
784 1 -4.1430020427645120e+00 6.0425137051860860e+00 -8.6842755794408674e+01 0 0 0
118 1 -2.2375070623626069e+01 -6.1068816414813574e+00 -1.0913952722001432e+02 0 0 0
124 1 -2.0301448120416925e+01 -6.0164700693217945e+00 -1.0722507487895599e+02 0 0 0
147 1 -2.2236162912067595e+01 -4.1668383901149708e+00 -1.0723678331055814e+02 0 0 0
149 1 -2.0163246578849723e+01 -4.0999333868286296e+00 -1.0922777970501842e+02 0 0 0
119 1 -2.2344761767820856e+01 8.0258256848575158e+00 -1.0714331134562165e+02 0 -1 0
122 1 -1.8042389848635931e+01 -6.0715757256249150e+00 -1.0920822907985846e+02 0 0 0
128 1 -1.6138477966857625e+01 -6.0585998167307382e+00 -1.0720537046448628e+02 0 0 0
151 1 -1.8151085446638383e+01 -3.9275769675788545e+00 -1.0722445451840784e+02 0 0 0
153 1 -1.6346522298701579e+01 -3.9498130218307614e+00 -1.0940254842020030e+02 0 0 0
123 1 -1.8208754504141222e+01 -8.0163813407190911e+00 -1.0718504019884544e+02 0 0 0
126 1 -1.4211988016541051e+01 -6.1480792239471755e+00 -1.0940084580256379e+02 0 0 0
155 1 -1.4150450339898914e+01 -4.2100125346767276e+00 -1.0737325629524300e+02 0 0 0
130 1 -1.0077366625807116e+01 -5.9476523464627356e+00 -1.0945265785025413e+02 0 0 0
132 1 -1.2152289100763188e+01 -6.0915917907696988e+00 -1.0765279298428028e+02 0 0 0
157 1 -1.2166051305048132e+01 -4.0699915931351409e+00 -1.0951577677286448e+02 0 0 0
159 1 -1.0126181301683218e+01 -3.9328343454243377e+00 -1.0735789631678396e+02 0 0 0
129 1 -1.2189280897160927e+01 7.9628439693220248e+00 -1.0947480383274687e+02 0 -1 0
134 1 -6.1260441660989686e+00 -6.0067033664488729e+00 -1.0914205970959138e+02 0 0 0
136 1 -8.3289452584538353e+00 -5.8671008320096201e+00 -1.0729847622917356e+02 0 0 0
161 1 -8.3073987053544158e+00 -3.9831721760706014e+00 -1.0940343582376077e+02 0 0 0
163 1 -6.0978709920433074e+00 -4.0321549772721488e+00 -1.0719631829953143e+02 0 0 0
133 1 -8.0448787015760459e+00 -7.9863577330746187e+00 -1.0892725201487123e+02 0 0 0
138 1 -2.1768513276528303e+00 -5.9668139651192647e+00 -1.0910529283863514e+02 0 0 0
140 1 -3.9379872547636645e+00 -6.0974713069262476e+00 -1.0711491107426346e+02 0 0 0
165 1 -4.0387524797758925e+00 -3.9958793589179189e+00 -1.0916937597502276e+02 0 0 0
167 1 -2.0608154584584057e+00 -3.9695691091298078e+00 -1.0714614910385846e+02 0 0 0
139 1 -1.9456695525501539e+00 -7.9846835481450276e+00 -1.0706542727523177e+02 0 0 0
3308 1 -8.2844804898585603e-02 -5.9802797513931933e+00 -1.0728092515062622e+02 0 0 0
3305 1 -1.3663979540407728e-01 -8.0054115246907180e+00 -1.0920510381194170e+02 0 0 0
137 1 -3.9296979643147707e+00 8.0309834866436631e+00 -1.0905073151672700e+02 0 -1 0
783 1 -1.9637029076065773e+00 3.7450530476666759e+00 -8.6729092040179367e+01 0 0 0
142 1 -2.6249372615174469e+01 -2.0123897174991896e+00 -1.0915395591291706e+02 0 0 0
148 1 -2.4193940797646107e+01 -1.8250583378206442e+00 -1.0730687804906708e+02 0 0 0
170 1 -2.6348532824878401e+01 1.9185938050097844e+00 -1.0926374340063518e+02 0 0 0
171 1 -2.6386766400263493e+01 8.2171459314961559e-02 -1.0724029483360482e+02 0 0 0
173 1 -2.4379801581572238e+01 7.5584201316152566e-02 -1.0912536905526760e+02 0 0 0
176 1 -2.4127959598941384e+01 2.0998176535418760e+00 -1.0703198019775193e+02 0 0 0
169 1 -2.8309949639315846e+01 -2.9740585667913887e-02 -1.0931900159416853e+02 0 0 0
3952 1 -1.5508863067000224e-02 6.1414554011029461e+00 -8.6826229408142240e+01 0 0 0
146 1 -2.2225533873888363e+01 -2.0577846367603949e+00 -1.0915153812704867e+02 0 0 0
152 1 -2.0132725784295719e+01 -2.0146240102809458e+00 -1.0707509415843275e+02 0 0 0
174 1 -2.2335781638869051e+01 2.1200383272333179e+00 -1.0922942327214793e+02 0 0 0
175 1 -2.2145287365307141e+01 8.1898985012931150e-02 -1.0708833727856799e+02 0 0 0
177 1 -2.0391076293000381e+01 1.7730844694197237e-02 -1.0922979426848060e+02 0 0 0
180 1 -2.0369776802619935e+01 2.0957922711315407e+00 -1.0721718761296857e+02 0 0 0
150 1 -1.8141577120941790e+01 -1.9542072720441654e+00 -1.0938078373367958e+02 0 0 0
156 1 -1.6077612423781510e+01 -1.9364285681770670e+00 -1.0723668832895149e+02 0 0 0
178 1 -1.8256548097787540e+01 2.0690412700296177e+00 -1.0894026698553790e+02 0 0 0
179 1 -1.8203060377694150e+01 -6.0648117272349769e-02 -1.0734692160829773e+02 0 0 0
181 1 -1.6156400198225416e+01 -2.4010357270679447e-02 -1.0932672275794735e+02 0 0 0
184 1 -1.6101137535347384e+01 1.9571850465918565e+00 -1.0711458243330162e+02 0 0 0
154 1 -1.4176315228976900e+01 -2.0949153827767937e+00 -1.0929199028802967e+02 0 0 0
183 1 -1.4074287702513029e+01 -6.6597690823844882e-02 -1.0710140033072528e+02 0 0 0
182 1 -1.4434147373831644e+01 2.1801698529042359e+00 -1.0927771294944675e+02 0 0 0
158 1 -1.0108675732364059e+01 -1.9738300389366601e+00 -1.0953071786249710e+02 0 0 0
160 1 -1.2099536240318161e+01 -2.0331636776320416e+00 -1.0731886746863222e+02 0 0 0
185 1 -1.2064583603661715e+01 2.5564282463366683e-01 -1.0909822712034658e+02 0 0 0
186 1 -9.9167719763994526e+00 2.0831736484820120e+00 -1.0938036574596235e+02 0 0 0
187 1 -1.0103903745711960e+01 6.9358380446515128e-02 -1.0727024204935115e+02 0 0 0
188 1 -1.2010077471723044e+01 2.2015825258108443e+00 -1.0719469158480190e+02 0 0 0
162 1 -6.1804930096894397e+00 -2.0049486849391287e+00 -1.0909575278791122e+02 0 0 0
164 1 -8.1687441221988788e+00 -1.9155373922259589e+00 -1.0731076081309340e+02 0 0 0
189 1 -8.1500570559742140e+00 -1.0214300792050644e-01 -1.0914875074893932e+02 0 0 0
190 1 -6.0618297490392585e+00 2.0449342115790681e+00 -1.0927366064164725e+02 0 0 0
191 1 -6.0045215167566894e+00 1.6609016632550863e-01 -1.0714121302341658e+02 0 0 0
192 1 -8.1381761579594638e+00 2.0511938567677386e+00 -1.0728179623751414e+02 0 0 0
166 1 -2.1661676783199755e+00 -2.1429438639558120e+00 -1.0906752789222489e+02 0 0 0
168 1 -4.1178252207260035e+00 -1.8935211380042722e+00 -1.0718545113533872e+02 0 0 0
193 1 -4.1800832684822629e+00 4.2723305656324463e-02 -1.0931077461808373e+02 0 0 0
194 1 -2.1559680654093230e+00 1.9298526665692417e+00 -1.0918147653525098e+02 0 0 0
195 1 -2.2033441638903430e+00 2.0071700535427237e-01 -1.0712791517071113e+02 0 0 0
196 1 -4.1140315035279267e+00 2.0963930762397496e+00 -1.0712354921333358e+02 0 0 0
3336 1 -4.9310579963963985e-02 -2.1425130258145342e+00 -1.0716396229109564e+02 0 0 0
3364 1 -8.1934474686279235e-02 2.1170185843440841e+00 -1.0708738577852823e+02 0 0 0
3361 1 -2.6964771550460100e-02 5.9440433780538491e-03 -1.0915153718988755e+02 0 0 0
117 1 -2.4327743969285041e+01 8.0520558603049679e+00 -1.0911853882545118e+02 0 -1 0
115 1 -2.6219153799478843e+01 -7.9974728797018813e+00 -1.0710512189434741e+02 0 0 0
198 1 -2.6248852100508877e+01 6.1167247728396772e+00 -1.0911391674352053e+02 0 0 0
199 1 -2.6416932273818404e+01 3.9939811249430006e+00 -1.0721340560440007e+02 0 0 0
201 1 -2.4241071676315435e+01 3.9971242019367086e+00 -1.0909317969188632e+02 0 0 0
204 1 -2.4275969486450016e+01 6.1123474269142433e+00 -1.0710767450400104e+02 0 0 0
838 1 -6.1567100559494339e+00 6.1283743700718647e+00 -8.4751560646488244e+01 0 0 0
121 1 -2.0237771267210416e+01 -7.8228011417328283e+00 -1.0934927053536987e+02 0 0 0
202 1 -2.2205843191200977e+01 6.1981408924263448e+00 -1.0914063142789546e+02 0 0 0
203 1 -2.2085513304944822e+01 4.1158985226777505e+00 -1.0713541321949037e+02 0 0 0
205 1 -2.0287927084690022e+01 4.0987538096019129e+00 -1.0910228886770788e+02 0 0 0
208 1 -2.0130854993463558e+01 6.1557932350007594e+00 -1.0715935267588667e+02 0 0 0
127 1 -1.4138463751492159e+01 -8.0069977907984455e+00 -1.0725277195405866e+02 0 0 0
125 1 -1.6100787282034648e+01 8.0387782652811932e+00 -1.0928746931894229e+02 0 -1 0
206 1 -1.8309885604974408e+01 6.1692547077965019e+00 -1.0924909575620971e+02 0 0 0
207 1 -1.8307400114748283e+01 4.0151427900810823e+00 -1.0723864397734320e+02 0 0 0
209 1 -1.6296768465595918e+01 4.0642679007294742e+00 -1.0919388553609336e+02 0 0 0
212 1 -1.6233005615178289e+01 6.0900808275659317e+00 -1.0712243666813711e+02 0 0 0
210 1 -1.4286124664452579e+01 5.9881142471440425e+00 -1.0929945215273631e+02 0 0 0
211 1 -1.4252761713613792e+01 4.0164385135271088e+00 -1.0721810696730883e+02 0 0 0
131 1 -1.0223860673401932e+01 -8.0431892701897301e+00 -1.0735267672886461e+02 0 0 0
213 1 -1.1934016331805040e+01 4.1486116025890842e+00 -1.0932875062697850e+02 0 0 0
214 1 -9.9928414971065838e+00 6.3690211133463190e+00 -1.0920282864204763e+02 0 0 0
215 1 -1.0076477903800006e+01 4.0120945092152605e+00 -1.0719123930685127e+02 0 0 0
216 1 -1.2200796497728286e+01 6.0584004648804504e+00 -1.0723115285879709e+02 0 0 0
135 1 -5.9912924107406376e+00 8.0646053874582861e+00 -1.0699300236599777e+02 0 -1 0
217 1 -8.1607042555047737e+00 4.1617131170981674e+00 -1.0917450159757516e+02 0 0 0
218 1 -6.2736946894786199e+00 6.1330142542184820e+00 -1.0911621831474221e+02 0 0 0
219 1 -6.1173039579477591e+00 4.2879344701807209e+00 -1.0705746585413004e+02 0 0 0
220 1 -8.1358595734390136e+00 6.1980902691988131e+00 -1.0704018800032728e+02 0 0 0
221 1 -4.3108273084174193e+00 4.0590525642067217e+00 -1.0922991088185937e+02 0 0 0
222 1 -2.1045265509660149e+00 6.0562140004249718e+00 -1.0909727477975930e+02 0 0 0
223 1 -2.0585616801606332e+00 4.0677116583981174e+00 -1.0720307374065852e+02 0 0 0
224 1 -3.9352090565762197e+00 6.0223918497290541e+00 -1.0710464972654489e+02 0 0 0
3389 1 -5.0240794144753312e-02 4.1740473990900888e+00 -1.0917410515389159e+02 0 0 0
3392 1 -1.3455041572362136e-01 6.1085792922035296e+00 -1.0714856448377321e+02 0 0 0
226 1 -2.6219722074248907e+01 -5.9154386751150074e+00 -1.0494280470940534e+02 0 0 0
232 1 -2.4272220392256109e+01 -6.0835601820490055e+00 -1.0295513681268822e+02 0 0 0
255 1 -2.6244859493769727e+01 -4.0583763872609095e+00 -1.0299557739630059e+02 0 0 0
257 1 -2.4245519839587139e+01 -4.0274396988069530e+00 -1.0511827469518308e+02 0 0 0
227 1 -2.6273512020717124e+01 8.0448609435794776e+00 -1.0300763357418691e+02 0 -1 0
229 1 -2.4328913834331406e+01 8.0903965405608194e+00 -1.0500578701062985e+02 0 -1 0
369 1 -2.4272329815982218e+01 -3.9322848923119111e+00 -1.0109509947441556e+02 0 0 0
338 1 -2.6601804521078776e+01 -6.0621424142202551e+00 -1.0101140993158059e+02 0 0 0
341 1 -2.4334668910224856e+01 -7.9577150270518411e+00 -1.0099733683577661e+02 0 0 0
837 1 -8.1100142797222059e+00 4.1111932634382100e+00 -8.4750102723545666e+01 0 0 0
780 1 -8.1137346884055468e+00 6.1381406290560783e+00 -8.6704086384566153e+01 0 0 0
230 1 -2.2217893731579665e+01 -6.0684540210241131e+00 -1.0514953513672644e+02 0 0 0
236 1 -2.0088292416566123e+01 -6.0232550102963138e+00 -1.0321962137961599e+02 0 0 0
259 1 -2.2163408346080477e+01 -3.9975793522548781e+00 -1.0297067483531177e+02 0 0 0
261 1 -2.0193380855750632e+01 -3.8769919950919340e+00 -1.0501357041580286e+02 0 0 0
233 1 -2.0363093473342499e+01 -7.9136547138781772e+00 -1.0520892656313563e+02 0 0 0
234 1 -1.8159984091892383e+01 -5.9235535671103303e+00 -1.0525950895631946e+02 0 0 0
240 1 -1.6084135021932276e+01 -6.0569127847575404e+00 -1.0320675414413870e+02 0 0 0
263 1 -1.8245567999084503e+01 -3.7619049337852859e+00 -1.0315899298320740e+02 0 0 0
265 1 -1.6310600065601285e+01 -4.0401775702175069e+00 -1.0528874338384519e+02 0 0 0
238 1 -1.3973256114861526e+01 -5.9985177528969995e+00 -1.0528630262795048e+02 0 0 0
235 1 -1.8234481582623932e+01 -8.0015671987800872e+00 -1.0319092556720956e+02 0 0 0
237 1 -1.6218146126953442e+01 -7.9123095373491026e+00 -1.0524424337297431e+02 0 0 0
346 1 -1.8306714058133341e+01 -5.8125587050142640e+00 -1.0112010797734349e+02 0 0 0
349 1 -1.6130273968866327e+01 -8.0090487169507565e+00 -1.0119970641394649e+02 0 0 0
267 1 -1.4291739165550053e+01 -3.8779107914516309e+00 -1.0332230047745354e+02 0 0 0
242 1 -1.0131481747272286e+01 -5.8648016189361041e+00 -1.0508766088080344e+02 0 0 0
244 1 -1.2133204358731946e+01 -5.9596281384662522e+00 -1.0311836897981385e+02 0 0 0
269 1 -1.1972229744769166e+01 -3.9592100637820966e+00 -1.0541101255150237e+02 0 0 0
271 1 -9.9457392665415831e+00 -3.9312193737504106e+00 -1.0318719323924597e+02 0 0 0
350 1 -1.4008926051326899e+01 -5.8178003832195779e+00 -1.0111905563776773e+02 0 0 0
381 1 -1.2110229703106656e+01 -3.9414758235209773e+00 -1.0114544091478537e+02 0 0 0
353 1 -1.2083527531295076e+01 8.0704042752149512e+00 -1.0107696546573163e+02 0 -1 0
246 1 -6.0211597000706938e+00 -5.8581056344811291e+00 -1.0532350385052132e+02 0 0 0
248 1 -8.0011448057480425e+00 -5.9305952704320815e+00 -1.0324162166974359e+02 0 0 0
273 1 -8.0629361631709333e+00 -3.8323842167121591e+00 -1.0528870750598394e+02 0 0 0
275 1 -5.9762521890965976e+00 -3.9206562531444433e+00 -1.0324504930717981e+02 0 0 0
247 1 -5.9862445409305831e+00 -7.9429283735487886e+00 -1.0318230213046660e+02 0 0 0
245 1 -8.2692718457504739e+00 -7.7962210273559380e+00 -1.0510048531884543e+02 0 0 0
250 1 -2.0253655972468629e+00 -5.9051790519267549e+00 -1.0509774096057654e+02 0 0 0
252 1 -4.0687292059941003e+00 -6.0072341115594048e+00 -1.0319458759499322e+02 0 0 0
277 1 -3.9648941245188891e+00 -3.7928673318761512e+00 -1.0532777074421300e+02 0 0 0
279 1 -1.9737065027983129e+00 -3.9352885636394550e+00 -1.0296043971076072e+02 0 0 0
3420 1 -1.1855338471348785e-01 -6.0800636669952945e+00 -1.0315285785855600e+02 0 0 0
251 1 -2.0005754489447809e+00 -7.9567244852770500e+00 -1.0312551281577045e+02 0 0 0
249 1 -3.9363846407802354e+00 -8.0898772721272962e+00 -1.0515290596214479e+02 0 0 0
779 1 -6.0292046822885510e+00 4.0008594298255247e+00 -8.6697654923730653e+01 0 0 0
254 1 -2.6114210050227914e+01 -2.0657902502290635e+00 -1.0502195955532663e+02 0 0 0
260 1 -2.4129777702783159e+01 -2.1519808771570075e+00 -1.0316895935037665e+02 0 0 0
282 1 -2.6237922599564506e+01 2.1624708322707131e+00 -1.0525860959050941e+02 0 0 0
283 1 -2.6309896442575440e+01 1.3170013051591678e-01 -1.0320126589162578e+02 0 0 0
285 1 -2.4356555631951412e+01 -1.8617296652872938e-02 -1.0524429003504504e+02 0 0 0
288 1 -2.4204168187384568e+01 2.0629056322993415e+00 -1.0317808846206496e+02 0 0 0
366 1 -2.6303445008650559e+01 -2.0139593989154152e+00 -1.0126227423083827e+02 0 0 0
397 1 -2.4343887576236309e+01 7.5397318159728707e-02 -1.0109969688729453e+02 0 0 0
258 1 -2.2229267833173761e+01 -2.0191540137139894e+00 -1.0525972843303968e+02 0 0 0
264 1 -2.0299971274776116e+01 -1.8051710427733285e+00 -1.0309712048429132e+02 0 0 0
286 1 -2.2266827811937659e+01 1.9278681459573044e+00 -1.0508548849886807e+02 0 0 0
287 1 -2.2416919641478675e+01 -3.7755989367189526e-02 -1.0315500843662805e+02 0 0 0
289 1 -1.9998859782031033e+01 1.0871191515918607e-01 -1.0523539987490378e+02 0 0 0
292 1 -2.0256232070184016e+01 1.8515372507579861e+00 -1.0308420791745588e+02 0 0 0
262 1 -1.8138374578104465e+01 -1.8509841412737746e+00 -1.0523372098789147e+02 0 0 0
268 1 -1.6262733947511187e+01 -1.7847534834227867e+00 -1.0322738752537691e+02 0 0 0
290 1 -1.8141143405894322e+01 2.1468460136636192e+00 -1.0528375221528034e+02 0 0 0
291 1 -1.8227817272396205e+01 8.8517005341811852e-02 -1.0304970199676521e+02 0 0 0
293 1 -1.5975138266742039e+01 1.2774836064458853e-01 -1.0515284485454606e+02 0 0 0
296 1 -1.6033148618618018e+01 2.0300007633536925e+00 -1.0344518755120305e+02 0 0 0
295 1 -1.3991645006817258e+01 3.6113192797518789e-02 -1.0315312303600567e+02 0 0 0
266 1 -1.4030056593701511e+01 -1.9658343555677029e+00 -1.0511264869203885e+02 0 0 0
402 1 -1.8308299702574427e+01 2.0944832409449341e+00 -1.0098993349191618e+02 0 0 0
294 1 -1.4003736176709623e+01 2.1166200875536658e+00 -1.0518462283764073e+02 0 0 0
270 1 -1.0144836689472202e+01 -2.0335747311610639e+00 -1.0510227352858477e+02 0 0 0
272 1 -1.2074707338532500e+01 -1.9970575192914370e+00 -1.0305331156023301e+02 0 0 0
297 1 -1.2149384986394548e+01 1.5986500440343576e-01 -1.0507099692637772e+02 0 0 0
298 1 -1.0034258841419421e+01 2.1294060850478358e+00 -1.0522265228422620e+02 0 0 0
299 1 -9.9961416112819865e+00 1.5962784765509083e-01 -1.0311480717228216e+02 0 0 0
300 1 -1.2029487992675673e+01 2.2226369079892274e+00 -1.0306601078504666e+02 0 0 0
409 1 -1.2056420411089212e+01 1.2180228482890647e-01 -1.0125459997892921e+02 0 0 0
274 1 -5.9172707772440907e+00 -1.8463783225478807e+00 -1.0509903159967138e+02 0 0 0
276 1 -7.9889289745067371e+00 -1.9493593636285877e+00 -1.0306949922691079e+02 0 0 0
301 1 -8.0598630656729604e+00 1.4613640131540090e-01 -1.0539235425873235e+02 0 0 0
302 1 -5.9828951571713258e+00 1.9116592828106023e+00 -1.0511574285973839e+02 0 0 0
303 1 -6.1304312963863117e+00 -6.2483810993648692e-02 -1.0308194229106265e+02 0 0 0
304 1 -7.9407355680033778e+00 1.8980122731705993e+00 -1.0315260561781982e+02 0 0 0
278 1 -1.9396823001535708e+00 -1.8404059671533046e+00 -1.0512837225434208e+02 0 0 0
280 1 -4.0013775860005936e+00 -1.9797096522189719e+00 -1.0304244119376079e+02 0 0 0
305 1 -3.9677364569782152e+00 7.2144192392012502e-02 -1.0510925561907223e+02 0 0 0
306 1 -2.0770970846500845e+00 2.1295606463089549e+00 -1.0507398595310713e+02 0 0 0
307 1 -1.9259590587233044e+00 -8.7052890705625940e-02 -1.0300840634463674e+02 0 0 0
308 1 -3.9443916735238673e+00 2.0075181130191573e+00 -1.0315349266626930e+02 0 0 0
417 1 -4.1537374005260919e+00 -4.7824355114258407e-02 -1.0093418490561575e+02 0 0 0
390 1 -2.0506222407786283e+00 -1.9742860525031436e+00 -1.0104421489757252e+02 0 0 0
3473 1 -5.2684430402202109e-02 2.3354309526958569e-01 -1.0503834688883994e+02 0 0 0
3476 1 -1.4438391911197931e-02 2.0210981463231383e+00 -1.0299111343920740e+02 0 0 0
691 1 -1.0186122072225910e+01 -8.0185461837277572e+00 -8.6767951116531904e+01 0 0 0
310 1 -2.6273395115435459e+01 6.0512421340027993e+00 -1.0517635968098278e+02 0 0 0
311 1 -2.6244956321771628e+01 4.1038550257107733e+00 -1.0291123231557172e+02 0 0 0
313 1 -2.4253645996547331e+01 4.1658376387662832e+00 -1.0527901097824142e+02 0 0 0
316 1 -2.4033366536518148e+01 6.1592186868330527e+00 -1.0307498762889607e+02 0 0 0
231 1 -2.2179535239614918e+01 -7.9487210031978837e+00 -1.0293984680245956e+02 0 0 0
314 1 -2.2280541404786646e+01 6.1658625576707378e+00 -1.0511308719449949e+02 0 0 0
315 1 -2.2132397388428735e+01 4.0186120047871832e+00 -1.0320777987764269e+02 0 0 0
317 1 -2.0183162213961552e+01 4.1093757471619110e+00 -1.0508572712749090e+02 0 0 0
320 1 -2.0055905708330414e+01 6.0672164649410467e+00 -1.0320012373424194e+02 0 0 0
429 1 -2.0234734734304897e+01 4.0474720054739581e+00 -1.0102467558577024e+02 0 0 0
318 1 -1.8254633037917714e+01 6.1446121673144081e+00 -1.0513037572064270e+02 0 0 0
319 1 -1.8337464657561473e+01 4.0381489093492284e+00 -1.0291772785676635e+02 0 0 0
321 1 -1.6216168416576682e+01 4.1657848174815166e+00 -1.0513053061695436e+02 0 0 0
324 1 -1.6370135052962631e+01 6.1840043410028329e+00 -1.0325752111623368e+02 0 0 0
323 1 -1.4104297009426411e+01 4.0816390235326478e+00 -1.0318595277180800e+02 0 0 0
239 1 -1.4170695566343586e+01 -8.0048875289315262e+00 -1.0332241334809724e+02 0 0 0
322 1 -1.4224331896010295e+01 6.1582190404832140e+00 -1.0519908169275939e+02 0 0 0
430 1 -1.8163347871599044e+01 6.0491155151126437e+00 -1.0114321723096374e+02 0 0 0
243 1 -1.0227963582407318e+01 -8.0430642742134246e+00 -1.0320482487391288e+02 0 0 0
241 1 -1.2071062187228147e+01 -8.0780107810749122e+00 -1.0531714937029815e+02 0 0 0
325 1 -1.2171158546194373e+01 4.1491861274696173e+00 -1.0520029121844993e+02 0 0 0
326 1 -1.0115810758976028e+01 6.2830088543636808e+00 -1.0516920719239373e+02 0 0 0
327 1 -9.9605979994117977e+00 3.9748145778030399e+00 -1.0321312855278299e+02 0 0 0
328 1 -1.2250130258091811e+01 6.1884137203043350e+00 -1.0326903218815224e+02 0 0 0
437 1 -1.2246299643756837e+01 4.2384700838686884e+00 -1.0128248429079130e+02 0 0 0
329 1 -8.0132843151849151e+00 4.0412850050829148e+00 -1.0505525012320803e+02 0 0 0
330 1 -6.0843889765497519e+00 6.1235428314438654e+00 -1.0497888256996883e+02 0 0 0
331 1 -6.2117252603966424e+00 4.1009140559824306e+00 -1.0319637148332728e+02 0 0 0
332 1 -8.1101721651315621e+00 6.2703233610211422e+00 -1.0306604218847380e+02 0 0 0
333 1 -4.1615238605479208e+00 4.1883318197167609e+00 -1.0501844672785990e+02 0 0 0
334 1 -1.9221886254242841e+00 6.1484080537224175e+00 -1.0513410176787565e+02 0 0 0