LAMMPS (16 Feb 2016)
# ------------------------ INITIALIZATION ----------------------------
echo both
#log		log.c
units           metal
dimension       3
boundary        p p p
atom_style      atomic
shell         mkdir  cfg
WARNING: Shell command 'mkdir' failed with error 'File exists' (../input.cpp:1126)
shell         mkdir  dump
WARNING: Shell command 'mkdir' failed with error 'File exists' (../input.cpp:1126)


# ----------------------- ATOM DEFINITION & Force Field -------------
read_data     NPT_relaxed.data       ##Read file dumped from simulation 1
  orthogonal box = (-93.2805 -8.11135 -412.184) to (93.2805 8.11135 21.7735)
  16 by 1 by 32 MPI processor grid
  reading atoms ...
  68080 atoms
  reading velocities ...
  68080 velocities

pair_style      eam/alloy
pair_coeff  	  * * Al_wkg_MSMSE_2009.set Al

#---------------------- DEFINE Laser GERION and GROUP ----------------
region       R1  block -75  75  INF  INF  INF  5  units box
group        G1 region R1
54664 atoms in group G1
group        G2 subtract all G1
13416 atoms in group G2


#define     temperature/pressure calculation  group
variable    x1atom atom "x>=0  &&  x<4 &&  z>-40 && z<1"     ##NEW!!!!!!!!!!!!
variable    x2atom atom "x>=-93.28  &&  x<-89.28 &&  z>-40 && z<1"
variable    x3atom atom "x>=0  &&  x<4 &&  z>-20 && z<1"
variable    x4atom atom "x>=-93.28  &&  x<-89.28 &&  z>-20 && z<1"
variable    x5atom atom "x>=196  &&  x<200 &&  z>-40 && z<1"

group       x1atom variable x1atom
136 atoms in group x1atom
group       x2atom variable x2atom
144 atoms in group x2atom
group       x3atom variable x3atom
70 atoms in group x3atom
group       x4atom variable x4atom
72 atoms in group x4atom
group       x5atom variable x5atom
0 atoms in group x5atom


compute      COM1x x1atom com
compute      COM2x x2atom com
compute      COM3x x3atom com
compute      COM4x x4atom com
compute      COM5x x5atom com

compute      COMall all com

#Temperature profile
#variable      Tprofile atom 300*(1+(step/5000)*2.5*exp(z/40))
variable      Tprofile atom 300*(1+(step/5000)*2.5*exp(z/75))

# ------------------------- SETTINGS ---------------------------------
thermo          100
thermo_style    custom step lx pxx pyy pzz temp c_COM1x[1] c_COM1x[2] c_COM1x[3] c_COM2x[1] c_COM2x[2] c_COM2x[3] c_COM3x[1] c_COM3x[2] c_COM3x[3] c_COM4x[1] c_COM4x[2] c_COM4x[3]  c_COM5x[1] c_COM5x[2] c_COM5x[3] c_COMall[1] c_COMall[2] c_COMall[3]

timestep       0.002


compute dispall all displace/atom
# ---------------- Run Laser Material Interaction --------------------
#dump          1 all custom 1000 dump/z1dump.atom id type x y z c_dispall[1]  c_dispall[2]  c_dispall[3] c_dispall[4]
#dump          2 all cfg 100 cfg/*.cfg mass type xs ys zs
#dump_modify   2 element Al

#relax for 2 PS
#fix           1 all nvt temp 300.0 300.0 0.1
#run  1000
#unfix         1

fix           1  all nve
fix           3temp  G1  langevin  v_Tprofile  0  0.1  378411   #TEST ALL
run           5000
Neighbor list info ...
  1 neighbor list requests
  update every 1 steps, delay 10 steps, check yes
  max neighbors/atom: 2000, page size: 100000
  master list distance cutoff = 8.365
  ghost atom cutoff = 8.365
  binsize = 4.1825 -> bins = 45 4 104
Memory usage per processor = 0.0769958 Mbytes
Step Lx Pxx Pyy Pzz Temp COM1x[1] COM1x[2] COM1x[3] COM2x[1] COM2x[2] COM2x[3] COM3x[1] COM3x[2] COM3x[3] COM4x[1] COM4x[2] COM4x[3] COM5x[1] COM5x[2] COM5x[3] COMall[1 COMall[2 COMall[3 
       0    186.56099   -105.07565   -148.49058    493.16624    300.25745    1.7101972  -0.61148401   -19.522673   -91.562062  -0.86399995   -19.529738    1.6951291  -0.56344817   -9.9980337   -91.384787  -0.96004442   -9.4381684            0            0            0   -1.0139184   -1.0139184   -185.06582 
     100    186.56099   -81.927744   -141.92521    525.64043    300.81699    1.7132819   -0.6557496   -19.511355   -91.520072  -0.83914301   -19.572192    1.7082774  -0.61121596   -9.9822245   -91.303632  -0.96937873   -9.4771187            0            0            0    -1.015451   -1.0134338   -185.06777 
     200    186.56099     -21.4513    15.612391    650.95977    304.44066    1.7374518   -0.6540416   -19.533467   -91.489989  -0.88569684   -19.558397    1.7268222  -0.63036812   -9.9772419   -91.254736  -0.98616835    -9.450539            0            0            0   -1.0173944   -1.0099826   -185.07045 
     300    186.56099    110.04449    115.63386    707.51632    306.72984    1.7949541  -0.64957367    -19.52454   -91.460329  -0.86445269   -19.530255     1.797381  -0.60796425   -9.9620484   -91.204325  -0.92687101   -9.4590696            0            0            0    -1.017658   -1.0073747     -185.076 
     400    186.56099    163.37551    101.07978     737.0698    308.18446    1.7764162  -0.64138062   -19.541914   -91.493448  -0.84074977   -19.578133    1.7757037  -0.58790586   -10.013524   -91.253949  -0.92315021   -9.5006372            0            0            0    -1.017806   -1.0056968   -185.08255 
     500    186.56099    321.73881    372.85519    909.87794    313.47305    1.7643263   -0.6799828   -19.522538   -91.471277  -0.78957871   -19.537356     1.764356  -0.63130593   -9.9848297   -91.220114  -0.87134718   -9.4068882            0            0            0   -1.0180989   -1.0034333   -185.08585 
     600    186.56099      373.856    410.29571    970.37057    313.36387    1.7791407  -0.65958338   -19.558254   -91.504344  -0.82477492   -19.503757    1.7670441  -0.61900999   -9.9559992   -91.296168  -0.91209054   -9.3896995            0            0            0   -1.0194245   -1.0034656   -185.08759 
     700    186.56099    436.61207    448.12366    1022.6517    316.43901     1.696003  -0.61259231   -19.557956   -91.539111  -0.81477017   -19.506514    1.6725985  -0.57639701   -9.9626518   -91.308708  -0.86656446   -9.3528754            0            0            0   -1.0185673    -1.001717   -185.08757 
     800    186.56099    689.84223    624.31529    1163.5207    320.02355    1.6975642   -0.5847998   -19.492729   -91.543348  -0.82492414   -19.509474    1.6393185  -0.62904286   -9.9348536   -91.343511  -0.88179625   -9.4140889            0            0            0   -1.0162924  -0.99578914   -185.08837 
     900    186.56099    712.50866    718.05702    1302.9821    320.78807    1.7186482  -0.63610537    -19.46882   -91.518426  -0.86228101   -19.527002     1.665689   -0.6491373   -9.8665347   -91.337135  -0.92744651   -9.4103094            0            0            0   -1.0151883   -0.9939452    -185.0902 
    1000    186.56099    779.33612    778.68749    1284.2763     323.6493    1.7225558  -0.64343083   -19.475486   -91.522803  -0.90346335   -19.519703     1.699576  -0.64739373   -9.8285554   -91.337101  -0.93489352   -9.3541938            0            0            0   -1.0161053  -0.99253879   -185.08924 
    1100    186.56099    1065.8695    1015.9274    1617.4694    328.22214    1.7322043   -0.6293354   -19.510915   -91.535534  -0.90851523   -19.486866    1.7196007  -0.59291611   -9.8611808   -91.316697  -0.92724508   -9.3797922            0            0            0   -1.0159599  -0.99247983   -185.09089 
    1200    186.56099    1072.2224    1026.2843    1633.1145    329.83617    1.6806776  -0.60615494   -19.464574   -91.509613  -0.83260352   -19.488217    1.6449608   -0.5722947   -9.8494293   -91.294392  -0.89933208   -9.3932507            0            0            0   -1.0197838  -0.99259345   -185.09181 
    1300    186.56099    1171.5533    1120.6982    1633.6031    332.45682    1.7206563  -0.63623636   -19.367434   -91.499669  -0.79481709   -19.430061    1.7028979  -0.62030069    -9.733313   -91.253717  -0.86995432   -9.3201413            0            0            0   -1.0211327  -0.99186174   -185.09244 
    1400    186.56099    1373.0023    1243.0755    1817.4304    335.08728    1.7405441  -0.62364761   -19.422162   -91.528822  -0.76202381   -19.429207    1.7018304  -0.60356049   -9.7733547   -91.250572   -0.8391598   -9.2707338            0            0            0   -1.0210146  -0.99217259   -185.09569 
    1500    186.56099    1445.2947    1494.5648    1780.7439    339.49197    1.7342233  -0.62165852    -19.47858   -91.527263  -0.75982922   -19.410037    1.7044523  -0.60749494   -9.8021619   -91.261386  -0.80285027   -9.2029646            0            0            0   -1.0220857  -0.99322059   -185.09556 
    1600    186.56099    1493.5322    1381.9627    1771.4144    342.15703    1.7582672  -0.61712779   -19.409316    -91.50084  -0.73577158   -19.388539    1.7697577  -0.61754614   -9.7123022   -91.205336  -0.83989635   -9.2205302            0            0            0   -1.0220101  -0.99428214   -185.09788 
    1700    186.56099    1552.9608    1577.4179    1884.5642    342.13492    1.7294507  -0.61097578   -19.432494   -91.562915  -0.70501752   -19.384611    1.7342733  -0.59867756   -9.7389142   -91.322099  -0.78015916   -9.2370518            0            0            0   -1.0218353  -0.99334466   -185.09824 
    1800    186.56099    1685.7874    1671.7675    1950.8739     345.0685    1.6809128  -0.61511835   -19.433369   -91.595291  -0.71548597   -19.399608    1.6804587  -0.60612258   -9.7236515   -91.386726  -0.79978294   -9.2401091            0            0            0   -1.0202813  -0.99512641   -185.09601 
    1900    186.56099     1914.378    1793.9275    2138.0864     349.6877    1.6934647  -0.61694172   -19.412141   -91.584479  -0.72380169   -19.435318    1.6758022  -0.62293353   -9.7441206   -91.405588  -0.77784598   -9.2954835            0            0            0   -1.0219754  -0.99722855   -185.09633 
    2000    186.56099    1971.5034    1927.8081    2233.1326    355.78199     1.718629  -0.68308098   -19.438126   -91.547154  -0.76928652   -19.442652    1.7132091  -0.66600165   -9.7666099   -91.399425  -0.79159911   -9.2979982            0            0            0   -1.0247284  -0.99841968   -185.09608 
    2100    186.56099    2100.0237    2035.5564    2194.9049    356.36429     1.709723  -0.57911479   -19.422173   -91.540054  -0.80835191   -19.352304    1.7127429  -0.54843425   -9.7734895   -91.362281  -0.88254289    -9.200844            0            0            0   -1.0248341  -0.99744438   -185.09434 
    2200    186.56099    2207.8568    2185.5063    2312.0698    358.33801    1.6844166  -0.66950957   -19.426251   -91.522668   -0.8195245    -19.33778    1.7352402  -0.64545933    -9.755257   -91.314803  -0.90938253   -9.2024073            0            0            0   -1.0223038  -0.99541758   -185.09439 
    2300    186.56099    2275.4232    2359.4744     2385.942    361.19243    1.7184256  -0.64580012   -19.396469   -91.468247  -0.79224525   -19.303156    1.7547329   -0.6617296   -9.7035258   -91.237142  -0.87738342   -9.1279508            0            0            0   -1.0195071  -0.99691916   -185.09307 
    2400    186.56099    2420.5247    2340.8606    2336.0616    367.24867    1.7186283  -0.59960803   -19.367553   -91.419648  -0.79975323   -19.255973    1.7704723  -0.59425221   -9.6798218   -91.197923  -0.90789602   -9.0542051            0            0            0   -1.0174889  -0.99636139   -185.09225 
    2500    186.56099    2425.1518    2342.9073    2464.6199    367.18653    1.7526149  -0.63956656   -19.354712   -91.483482  -0.79880722    -19.14436    1.7558957   -0.6921779   -9.6366371   -91.262748   -0.8776677   -8.9240673            0            0            0   -1.0152986  -0.99440108   -185.09381 
    2600    186.56099    2551.1466    2469.9048    2544.4318    369.80605      1.79388  -0.61006806   -19.321723   -91.502958  -0.78373828   -19.138529    1.8401592  -0.66027356   -9.6349167   -91.266505  -0.88618736   -8.9285435            0            0            0   -1.0187317  -0.99169923   -185.09688 
    2700    186.56099    2660.6036    2635.5838    2781.3635    372.55084    1.7640202  -0.60374446   -19.325657   -91.594714  -0.78150029   -19.174904    1.8347361  -0.66958979     -9.64418   -91.338416  -0.80749524   -8.9298323            0            0            0   -1.0204945  -0.99090977   -185.10096 
    2800    186.56099    2824.0171    2849.0952    2808.1345    377.04652    1.7309533  -0.62255447    -19.29016   -91.567998   -0.7840328   -19.205831    1.7680007  -0.68728185   -9.5755209   -91.337076  -0.78285451   -8.9826543            0            0            0   -1.0205186  -0.98999607   -185.10129 
    2900    186.56099    2998.9812    2986.1535    2862.5654    379.74324     1.738512  -0.67490858   -19.292233   -91.519264  -0.69937368   -19.191736    1.7793649  -0.71195639    -9.568297   -91.337895  -0.68255604   -8.9710345            0            0            0   -1.0182998   -0.9906843    -185.1024 
    3000    186.56099     3145.137     3044.843    3021.3083    383.30007    1.7387499  -0.67144492    -19.24828   -91.544506  -0.68003169     -19.1977    1.8076114  -0.67390314   -9.5370892   -91.336284  -0.71628272   -8.9908359            0            0            0   -1.0166237  -0.99288446   -185.10749 
    3100    186.56099     3146.837    3053.4636    3031.1616    384.80289    1.7329621  -0.69419033   -19.261186    -91.49224  -0.64800152   -19.146086    1.7318908  -0.71912436   -9.5415765   -91.309948  -0.67522676   -8.9919843            0            0            0   -1.0142698  -0.99481546   -185.11043 
    3200    186.56099    3160.6365    3084.8061    3082.8859    387.48298    1.7335894  -0.65438516   -19.218992   -91.523801  -0.60961606   -19.188796    1.7821479  -0.70117779   -9.4598694   -91.298422  -0.65138916   -8.9984839            0            0            0   -1.0135391   -0.9959377   -185.11376 
    3300    186.56099    3344.1024    3313.8333    3156.4153    391.04581    1.7457847  -0.67107638   -19.250722   -91.511857  -0.62229112   -19.210619    1.7855356   -0.6467685   -9.4564482   -91.243309  -0.65962728   -8.9730373            0            0            0   -1.0181497   -0.9951972   -185.11755 
    3400    186.56099    3421.1506    3342.4494    3055.3632    394.36955     1.675268  -0.63026387   -19.204126    -91.44744  -0.70471733   -19.184731    1.7093433  -0.59799816   -9.3999485   -91.167636  -0.81200896   -8.9679548            0            0            0   -1.0152613  -0.99406388   -185.11953 
    3500    186.56099    3658.3487    3566.3401    3249.8818    396.98298    1.7044624  -0.66125548   -19.169511    -91.43433  -0.76325538   -19.072544    1.7349573   -0.6309198   -9.3629262   -91.141697  -0.84106332   -8.7822264            0            0            0   -1.0123524  -0.99468348   -185.12051 
    3600    186.56099    3712.2418    3571.0581    3289.8568     398.8065    1.6997585   -0.6829971   -19.130818    -91.41059  -0.83475135    -19.04321    1.7248935  -0.72426589   -9.3156584   -91.140741  -0.88046133   -8.7675627            0            0            0   -1.0136299  -0.99586834   -185.12139 
    3700    186.56099    3610.1651     3725.443    3312.0399    401.32039     1.707587   -0.6751987   -19.178126   -91.503125  -0.82101066   -18.967088    1.7201968  -0.66233609   -9.3714862   -91.258773  -0.87123591   -8.7320871            0            0            0   -1.0143324  -0.99379217   -185.12229 
    3800    186.56099    3800.8375    3695.5339    3451.0793    405.10135    1.6781951  -0.70617032   -19.130706   -91.522274  -0.74440943   -18.928961    1.6799478  -0.74836385   -9.4003251   -91.349802  -0.76948562   -8.6591799            0            0            0    -1.015026  -0.99296616   -185.12088 
    3900    186.56099    3924.2831    3906.6169    3512.1521    410.47202    1.6773841   -0.6788363   -19.189034   -91.551344  -0.74527114   -18.893934    1.6709995  -0.71845635   -9.4403966   -91.361549  -0.70826352   -8.6557427            0            0            0   -1.0173658  -0.99046347   -185.12226 
    4000    186.56099    4023.5396    4079.0689     3633.363    414.43571     1.655901  -0.71907011   -19.104564   -91.548817   -0.7756789   -18.867232    1.6322903  -0.75023771   -9.3689213   -91.371935  -0.80459688   -8.5850399            0            0            0   -1.0198106  -0.98858687    -185.1228 
    4100    186.56099      4268.78    4246.8278    3807.0811     415.6672    1.6531828  -0.78585456   -19.074803    -91.54621  -0.68626395    -18.88209    1.6753029  -0.80241736   -9.2590498   -91.328918  -0.74937944   -8.5475866            0            0            0   -1.0195892  -0.98645413   -185.12328 
    4200    186.56099    4236.1014    4268.8704    3844.8041    417.43827    1.6548174   -0.6570608   -19.072338   -91.562134   -0.6937555   -18.939036    1.6528482  -0.63228598   -9.2869686    -91.37333  -0.76634455   -8.6267903            0            0            0   -1.0220754  -0.98334574   -185.12103 
    4300    186.56099    4420.9781    4315.1097     3841.363    421.20786    1.6810154  -0.70548409   -19.078651   -91.528566  -0.67120101   -18.935571    1.6961244  -0.64315199   -9.2199292   -91.283741  -0.67500156   -8.6585175            0            0            0   -1.0235323  -0.98310165   -185.12152 
    4400    186.56099     4487.355     4496.442    4029.8314    423.37247    1.7053619  -0.72950468   -19.026437   -91.500378  -0.67049438   -18.961985    1.7228354   -0.7259069   -9.1502688   -91.249818  -0.66710029   -8.6903996            0            0            0   -1.0243586  -0.98277894   -185.12352 
    4500    186.56099    4708.3428    4577.4477    4179.8221    426.51077    1.6884246  -0.72205234   -18.948355   -91.508925   -0.7386303   -18.940055    1.6628792  -0.63538112   -9.1032467   -91.292307  -0.76954915   -8.6523125            0            0            0    -1.026023  -0.98272279   -185.12369 
    4600    186.56099    4673.4194    4673.8169    3999.7722    429.93474    1.7002279  -0.67049716   -18.964376   -91.485356  -0.78012254   -18.949369    1.6819679  -0.55157601   -9.1482407   -91.230976  -0.82259694   -8.6461723            0            0            0   -1.0250941  -0.98152261   -185.12253 
    4700    186.56099    4714.2506    4683.1943    4101.7116    431.78569    1.7963233  -0.63389594    -18.94354   -91.535738  -0.82310476   -18.892596    1.8308054  -0.56883975   -9.1330324   -91.279463  -0.89302699   -8.5119491            0            0            0   -1.0242196  -0.97985062   -185.11795 
    4800    186.56099    4930.2804    4964.6828    4303.5373     437.2704    1.7864292  -0.72613458   -18.959647   -91.586785  -0.77589208   -18.824707    1.7601839  -0.64633805   -9.2170835   -91.247037   -0.8177924   -8.4462387            0            0            0   -1.0218852  -0.97978763   -185.11574 
    4900    186.56099    4967.5765    4751.9614    4228.9117     441.5672    1.7918975  -0.75225853   -19.058999    -91.62887  -0.76176363    -18.78743    1.7538266  -0.69237042   -9.2748051   -91.286891  -0.93359056   -8.3947503            0            0            0   -1.0241856  -0.98163894   -185.11784 
    5000    186.56099    4937.7617    5014.0554     4320.995    444.57992    1.8545979  -0.75234453   -19.043002    -91.62654   -0.7514811   -18.675187    1.8278634  -0.72816556   -9.2643201   -91.352335  -0.85641526   -8.2427557            0            0            0   -1.0213138  -0.98068802    -185.1157 
Loop time of 10.1754 on 512 procs for 5000 steps with 68080 atoms

Performance: 84.910 ns/day, 0.283 hours/ns, 491.380 timesteps/s
99.9% CPU use with 512 MPI tasks x no OpenMP threads

MPI task timing breakdown:
Section |  min time  |  avg time  |  max time  |%varavg| %total
---------------------------------------------------------------
Pair    | 0.0014188  | 4.6158     | 5.924      |  62.5 | 45.36
Neigh   | 0.00011683 | 0.059353   | 0.081372   |   9.6 |  0.58
Comm    | 0.016008   | 1.8133     | 3.8038     |  48.2 | 17.82
Output  | 0.015012   | 0.038342   | 0.16978    |  17.6 |  0.38
Modify  | 0.025995   | 0.17888    | 0.34612    |  18.2 |  1.76
Other   |            | 3.47       |            |       | 34.10

Nlocal:    132.969 ave 168 max 0 min
Histogram: 49 15 0 0 0 11 5 39 164 229
Nghost:    1394.67 ave 1679 max 0 min
Histogram: 32 16 0 16 8 8 13 3 0 416
Neighs:    9363.19 ave 12287 max 0 min
Histogram: 51 13 0 13 3 0 2 57 180 193

Total # of neighbors = 4793952
Ave neighs/atom = 70.4165
Neighbor list builds = 105
Dangerous builds = 0


variable  com1_x equal "c_COM1x[1]"
variable  com1_y equal "c_COM1x[2]"
variable  com1_z equal "c_COM1x[3]"
variable  com2_x equal "c_COM2x[1]"
variable  com2_y equal "c_COM2x[2]"
variable  com2_z equal "c_COM2x[3]"
variable  com3_x equal "c_COM3x[1]"
variable  com3_y equal "c_COM3x[2]"
variable  com3_z equal "c_COM3x[3]"
variable  com4_x equal "c_COM4x[1]"
variable  com4_y equal "c_COM4x[2]"
variable  com4_z equal "c_COM4x[3]"
variable  com5_x equal "c_COM5x[1]"
variable  com5_y equal "c_COM5x[2]"
variable  com5_z equal "c_COM5x[3]"
variable  comall_x equal "c_COMall[1]"
variable  comall_y equal "c_COMall[2]"
variable  comall_z equal "c_COMall[3]"


fix          2 all print 100 "${com1_x}   ${com1_y}   ${com1_z}  ${com2_x}   ${com2_y}   ${com2_z} ${com3_x}   ${com3_y}   ${com3_z} ${com4_x}   ${com4_y}   ${com4_z} ${com5_x}   ${com5_y}   ${com5_z} ${comall_x}   ${comall_y}   ${comall_z}" file COM.data screen no
#-------------------------- Wave Propagation -------------------------
unfix        3temp
run          1000000
Memory usage per processor = 0.0769958 Mbytes
Step Lx Pxx Pyy Pzz Temp COM1x[1] COM1x[2] COM1x[3] COM2x[1] COM2x[2] COM2x[3] COM3x[1] COM3x[2] COM3x[3] COM4x[1] COM4x[2] COM4x[3] COM5x[1] COM5x[2] COM5x[3] COMall[1 COMall[2 COMall[3 
    5000    186.56099    4937.7617    5014.0554     4320.995    444.57992    1.8545979  -0.75234453   -19.043002    -91.62654   -0.7514811   -18.675187    1.8278634  -0.72816556   -9.2643201   -91.352335  -0.85641526   -8.2427557            0            0            0   -1.0213138  -0.98068802    -185.1157 
    5100    186.56099    4948.5417     5007.265    4340.9067    443.63512    1.8380245  -0.67270144   -19.124211   -91.614269  -0.76672555   -18.606846    1.8273314   -0.7115634   -9.3654821   -91.388661  -0.95041189   -8.2260991            0            0            0    -1.021108  -0.98230965   -185.11482 
    5200    186.56099    4830.4047     4913.921    4094.6229    441.28227    1.8096099  -0.68272579   -19.052846   -91.507879  -0.75867394   -18.558963    1.8307832  -0.71870346   -9.2174156   -91.308627  -0.89639188   -8.2244368            0            0            0   -1.0209022  -0.98393129   -185.11394 
    5300    186.56099    4629.5608    4610.0812    3800.1631    441.70294    1.7745443    -0.665171   -19.006843    -91.45908  -0.82830292   -18.489636    1.8204238  -0.66015502   -9.1162831   -91.270992  -0.89459613   -8.1571233            0            0            0   -1.0206964  -0.98555293   -185.11306 
    5400    186.56099    4481.4297    4441.6678    3327.9473    440.50972    1.6864661  -0.66510264   -18.860267   -91.414523  -0.81373551   -18.372552    1.6484864  -0.71298125   -8.9421273   -91.196615  -0.80170085   -8.0252746            0            0            0   -1.0204906  -0.98717456   -185.11218 
    5500    186.56099    4207.3793    4137.9589    3095.0834     442.9731    1.7750364  -0.70840941   -18.704548   -91.435748  -0.74038002   -18.271211    1.7270816  -0.81740729   -8.7089522   -91.229334  -0.75360567   -7.8444029            0            0            0   -1.0202849   -0.9887962    -185.1113 
    5600    186.56099    4036.3041    3984.5171    2672.0157    439.50715    1.8170013   -0.7617619   -18.515804   -91.426313  -0.82066251   -18.199767     1.779255  -0.79710091   -8.5657116   -91.187795  -0.85350269   -7.7860538            0            0            0   -1.0200791  -0.99041784   -185.11042 
    5700    186.56099    3855.4929    3863.5011    2482.4633    438.57093    1.7576671  -0.86146373   -18.221441   -91.448167  -0.78898342   -18.043751    1.6481653  -0.82516261   -8.2023233    -91.19158  -0.88496876    -7.624944            0            0            0   -1.0198733  -0.99203947   -185.10954 
    5800    186.56099    3557.7384    3748.7312    1961.9056    439.98513    1.7051231  -0.87714322    -18.07333   -91.444782  -0.76676229   -17.955585     1.619319  -0.91127059   -8.1058172   -91.242333  -0.89415523   -7.5764467            0            0            0   -1.0196675  -0.99366111   -185.10865 
    5900    186.56099      3526.58    3505.7877    1684.5696    437.90797     1.820404  -0.86904987   -17.881821   -91.463358  -0.73933646   -17.873996    1.7015003  -0.90763087   -7.9107937   -91.241057  -0.75621559   -7.4588121            0            0            0   -1.0194617  -0.99528275   -185.10777 
    6000    186.56099     3349.897    3290.6726    1290.8482    436.91675    1.7966061  -0.85784492   -17.692674   -91.448252  -0.72854922   -17.833805    1.7334874  -0.89184437   -7.6830081   -91.263608  -0.75000248   -7.3538327            0            0            0   -1.0192559  -0.99690438   -185.10689 
    6100    186.56099    3153.7544    3119.9327    1039.3516    436.96989    1.7239165   -0.8129248   -17.680064   -91.496329  -0.84136783   -17.736579    1.6845117  -0.81146005    -7.636682   -91.358375  -0.98907852   -7.2859277            0            0            0   -1.0190501  -0.99852602   -185.10601 
    6200    186.56099    2908.2956    2843.2734     662.6724    438.79038     1.772193  -0.79379933   -17.623264    -91.50622  -0.81345117    -17.56708    1.7297167  -0.79557992   -7.6532805   -91.325754  -0.99154632   -7.0654178            0            0            0   -1.0188443   -1.0001477   -185.10513 
    6300    186.56099    2708.6077    2738.6311    415.19263    438.96038    1.7896973  -0.75367859   -17.559829   -91.510271  -0.76456763   -17.519549    1.8272591  -0.66674035   -7.5642654   -91.280892  -0.88193678    -7.084551            0            0            0   -1.0186385   -1.0017693   -185.10425 
    6400    186.56099    2485.0807    2485.3303   -17.909011    438.70896    1.7704113  -0.77876594   -17.484499   -91.560467  -0.84902864   -17.498385    1.7891265   -0.6775887   -7.4842715   -91.287337  -0.89232022   -7.1659542            0            0            0   -1.0184327   -1.0033909   -185.10337 
    6500    186.56099    2312.6871    2332.7141   -257.94199    439.02241    1.8145977  -0.79560042   -17.406018     -91.6117  -0.84367395   -17.404425    1.8429153  -0.74326711   -7.3776244    -91.36147  -0.91396503   -7.0121668            0            0            0   -1.0182269   -1.0050126   -185.10249 
    6600    186.56099    2167.1495    2239.3427   -605.61623    437.98555    1.8751878  -0.75667485   -17.321271   -91.602584  -0.80746922   -17.314998    1.9522164  -0.72720945   -7.2740944   -91.375726  -0.83774721   -6.8891116            0            0            0   -1.0180211   -1.0066342   -185.10161 
    6700    186.56099     2105.924    2008.7861   -769.31506    437.42259    1.8493404  -0.67432538   -17.160034   -91.542932   -0.7681812   -17.269329    1.9117701  -0.58392622   -7.2428226   -91.337219  -0.84877722   -6.7888661            0            0            0   -1.0178153   -1.0082558   -185.10073 
    6800    186.56099    1879.3509    1925.5365   -1174.6933    438.39417    1.8848823  -0.75630466   -17.143986    -91.60925  -0.64848519   -17.339204    1.8913758  -0.73180948   -7.2306894   -91.428709  -0.75839479   -6.8956977            0            0            0   -1.0176096   -1.0098775   -185.09985 
    6900    186.56099    1749.2029     1658.113   -1466.2625    436.48221    1.9252054  -0.73796276   -17.024638   -91.531424  -0.64327091   -17.360557    1.9628252  -0.78896161   -7.1670415    -91.26156  -0.71623167   -7.0126872            0            0            0   -1.0174038   -1.0114991   -185.09897 
    7000    186.56099    1538.8607    1477.1163    -2012.873     436.2117    1.9020473  -0.64247453   -16.953299   -91.495044  -0.76316125   -17.284254     1.915467  -0.69956304   -6.9718638   -91.251994  -0.80690265   -6.8633763            0            0            0    -1.017198   -1.0131207   -185.09808 
    7100    186.56099    1278.5819    1240.0588   -2200.9922    435.90158    1.9200156  -0.70669234   -16.903152   -91.536726   -0.8301477    -17.35052    1.9169731  -0.81314107   -6.8613208   -91.283592  -0.91166356   -6.9587845            0            0            0   -1.0169922   -1.0147424    -185.0972 
    7200    186.56099    1095.4399    1066.6123   -2576.7836    434.94193    1.7535051  -0.74901642    -16.93533   -91.558405  -0.87298389   -17.354263    1.7131857  -0.78270487   -6.9464462   -91.338359  -0.95696165   -7.0025038            0            0            0   -1.0167864    -1.016364   -185.09632 
    7300    186.56099    944.60533    771.28333   -3073.9763    436.57552    1.7130685  -0.77966226   -16.950369   -91.447544  -0.85206276   -17.295307    1.6161932   -0.8396183   -6.9559338   -91.216301  -0.94240005   -6.9451819            0            0            0   -1.0165806   -1.0179857   -185.09544 
    7400    186.56099    756.66562    656.57538   -3470.4286    434.21117    1.7607942  -0.78170378    -16.87294   -91.483237  -0.80790987    -17.29285    1.6266675  -0.77621183    -6.932111     -91.2652  -0.93594599   -6.8624165            0            0            0   -1.0163748   -1.0196073   -185.09456 
    7500    186.56099    537.15449    510.27428   -3750.8621    435.31709    1.7296849  -0.80417836   -16.799941    -91.46936  -0.84742854   -17.220659    1.6900473  -0.71664158   -6.7952836   -91.218521    -0.962179   -6.7566833            0            0            0    -1.016169   -1.0212289   -185.09368 
    7600    186.56099    403.92543    347.96971   -4000.1431    435.28131    1.6398778    -0.873781   -16.821991   -91.410429  -0.80244006   -17.030191    1.6349988    -0.839137   -6.7894497   -91.162667  -0.93086532   -6.5584075            0            0            0   -1.0159632   -1.0228506    -185.0928 
    7700    186.56099    329.06901    295.63882   -4107.5845    434.86177    1.6695026  -0.90380513   -16.858681   -91.454433  -0.69802423     -16.9889    1.6710969  -0.89905566   -6.8346708   -91.187928  -0.73584253   -6.5168422            0            0            0   -1.0157574   -1.0244722   -185.09192 
    7800    186.56099    325.60415    169.16339   -4256.2595    433.69599    1.6831983  -0.85463836   -16.876223    -91.47869    -0.768388   -16.982043    1.6921509  -0.91445988   -6.9325947   -91.219294  -0.80286042   -6.5181383            0            0            0   -1.0155516   -1.0260938   -185.09104 
    7900    186.56099    222.45325    216.39696   -4327.7705    433.99104    1.6130326  -0.83329062   -16.997544   -91.477722  -0.86428907   -16.964792    1.6313659  -0.82201052   -7.0596125   -91.208448  -0.84897082   -6.5021549            0            0            0   -1.0153458   -1.0277155   -185.09016 
    8000    186.56099    145.24938    67.002623   -4341.4731    434.25262    1.6831599  -0.79273802   -17.092555   -91.568651  -0.87905761    -16.97607    1.6442865  -0.73476466   -7.1594072   -91.341799  -0.88331283   -6.5831454            0            0            0   -1.0151401   -1.0293371   -185.08928 
    8100    186.56099     204.0181    67.374609   -4469.8038    434.19397     1.710138  -0.72737257   -17.012139   -91.510019  -0.80969579   -17.021592     1.684509  -0.62715403   -7.0643726   -91.290276  -0.87929099   -6.6081258            0            0            0   -1.0149343   -1.0309588    -185.0884 
    8200    186.56099    280.16604    265.93297   -4224.3083    434.11674    1.7418789  -0.75393871   -17.058399   -91.532648   -0.7906834   -17.002508    1.7348658  -0.68551691   -7.1237563   -91.342035  -0.82124992   -6.6032451            0            0            0   -1.0147285   -1.0325804   -185.08751 
    8300    186.56099    319.06725    226.35569   -4167.0095    436.15681    1.7387531  -0.74166377   -17.067741   -91.513464  -0.79034055   -17.047536    1.7512428  -0.71563375   -7.1151817   -91.318744  -0.79819671    -6.659843            0            0            0   -1.0145227    -1.034202   -185.08663 
    8400    186.56099    494.87359    509.53573   -3709.2427    435.25231    1.7282461  -0.77356046   -17.046896   -91.566951  -0.78569451   -17.084918    1.7250352  -0.74771127   -7.1018807   -91.315964  -0.86823156   -6.7866094            0            0            0   -1.0143169   -1.0358237   -185.08575 
    8500    186.56099    713.75709    834.22205    -3284.272    435.90136     1.713948  -0.80315919   -17.163789    -91.54173  -0.80187724   -17.082129    1.7523931  -0.80740531    -7.280428   -91.302755  -0.93456415   -6.6936512            0            0            0   -1.0141111   -1.0374453   -185.08487 
    8600    186.56099    1063.9723    956.42515   -2947.6309     436.6021    1.7820217   -0.8629827   -17.163531    -91.60261  -0.85750936    -17.04446    1.7971696   -0.9550473   -7.2807624   -91.300701  -0.96275824   -6.6406222            0            0            0   -1.0139053   -1.0390669   -185.08399 
    8700    186.56099    1256.9136    1161.0019   -2476.2606    436.79163     1.779269   -0.9167078    -17.13119   -91.658552   -0.8159086   -17.194123    1.7070685  -0.95297799   -7.2452197   -91.415403  -0.99398886   -6.7496008            0            0            0   -1.0136995   -1.0406886   -185.08311 
    8800    186.56099    1446.9484    1408.4735   -2187.2037     436.9021     1.807827  -0.87610738   -17.150015   -91.652601  -0.84503557   -17.145582    1.7929445  -0.83260064   -7.2610992   -91.443073   -1.0223135   -6.6888989            0            0            0   -1.0134937   -1.0423102   -185.08223 
    8900    186.56099     1584.704    1651.5539   -1645.2153    435.47801    1.7861784  -0.90475481   -17.133944   -91.629022  -0.77033512   -17.099005     1.784617  -0.88062597   -7.1253877   -91.447216  -0.87038001   -6.6458906            0            0            0   -1.0132879   -1.0439318   -185.08135 
    9000    186.56099     1859.358    1747.2639   -1312.2392    438.12811    1.7082082   -0.9117578   -17.236217   -91.603192   -0.8506849    -17.08674    1.7052067  -0.93533299   -7.2188479   -91.465901  -0.97804693   -6.6996072            0            0            0   -1.0130821   -1.0455535   -185.08047 
    9100    186.56099     2028.893    1978.9995   -881.26825    438.48618    1.7900023  -0.88132624   -17.353085   -91.623688   -0.9572998   -17.052935    1.7804704  -0.87962852   -7.3556225   -91.483307    -1.109132   -6.6547229            0            0            0   -1.0128763   -1.0471751   -185.07959 
    9200    186.56099     2237.485    2247.2634   -496.31688    438.52353    1.8039668  -0.82118238    -17.41915   -91.619323   -1.0043166   -17.079444    1.7553906  -0.81564032   -7.4716266   -91.426442   -1.0960428   -6.6773483            0            0            0   -1.0126705   -1.0487968   -185.07871 
    9300    186.56099    2498.6175     2408.286   -35.356383    437.95703    1.7726445  -0.85559572   -17.472756   -91.607916  -0.99191553   -17.221881    1.7414137  -0.92468294   -7.5182905   -91.351093    -1.081717   -6.8440022            0            0            0   -1.0124648   -1.0504184   -185.07783 
    9400    186.56099    2659.7508    2616.8874    171.02222    438.08796    1.7301349  -0.86822642   -17.559365   -91.556325  -0.97576829   -17.275578    1.6811982  -0.92359737   -7.5765461   -91.299541  -0.98419601   -6.8639543            0            0            0    -1.012259     -1.05204   -185.07694 
    9500    186.56099    2668.9134    2512.8607    123.86133    440.95784    1.6583843  -0.83850558   -17.500909   -91.515424  -0.88875199   -17.280244    1.6357125  -0.91380146   -7.5729043   -91.262914  -0.84220784   -6.9011848            0            0            0   -1.0120532   -1.0536617   -185.07606 
    9600    186.56099    3019.1702    2864.6128    633.79502    438.02336    1.7366038  -0.86436332   -17.537449   -91.524302  -0.83282051   -17.399052    1.6539703  -0.90770562   -7.6071464   -91.333773  -0.80867575   -6.9154392            0            0            0   -1.0118474   -1.0552833   -185.07518 
    9700    186.56099    3103.9233    3058.6366    961.35912    440.56425     1.662097  -0.92183714   -17.596835   -91.505012  -0.82800326   -17.459795    1.6004277  -0.89536631   -7.6041362   -91.315148  -0.87687503   -7.0066677            0            0            0   -1.0116416   -1.0569049    -185.0743 
    9800    186.56099     3351.481    3229.9479    1070.9254     438.8726    1.6654171  -0.86862273   -17.729395   -91.511744  -0.78583002   -17.526074    1.6309194  -0.79124328   -7.8144664   -91.350687  -0.92294029   -7.0685801            0            0            0   -1.0114358   -1.0585266   -185.07342 
    9900    186.56099    3541.9722    3347.1853    1454.9455    438.35482    1.6489137  -0.83237102   -17.837744   -91.413088  -0.78119618   -17.662288    1.6059878   -0.8245201   -7.8953222   -91.213138   -0.9198792   -7.2465729            0            0            0     -1.01123   -1.0601482   -185.07254 
   10000    186.56099    3708.2642    3594.1251    1655.9412    440.00755     1.621748  -0.82107412   -17.941216   -91.442336  -0.77564737   -17.742354    1.6246001    -0.829322   -7.9303351    -91.23654  -0.98386254   -7.3938749            0            0            0   -1.0110242   -1.0617699   -185.07166 
   10100    186.56099    3835.9923    3795.4309    2097.6547    440.62285    1.6472229  -0.79725259   -18.043882   -91.460869  -0.82073703   -17.915562    1.5832148  -0.79057153   -8.0901276   -91.186052  -0.98604312   -7.5904461            0            0            0   -1.0108184   -1.0633915   -185.07078 
   10200    186.56099    3915.9975    3937.4266    2414.8508    442.32324    1.7095336  -0.77192126   -18.089305     -91.4541  -0.86607891   -18.024902    1.6966746  -0.73518127   -8.1155763   -91.246872  -0.98280329   -7.7090656            0            0            0   -1.0106126   -1.0650131    -185.0699 
   10300    186.56099     4278.012    4279.9028    2838.2032    440.61588    1.7022817  -0.81053009   -18.205193   -91.451155  -0.85164695   -18.176015    1.7088068  -0.77142647   -8.2421675   -91.190809  -0.95643779   -7.7214597            0            0            0   -1.0104068   -1.0666348   -185.06902 
   10400    186.56099    4407.3624     4334.429    3179.8389    443.35083    1.7857953   -0.8455252   -18.336495   -91.488814  -0.85781272   -18.232789    1.8084813  -0.80300382   -8.4259968   -91.191948  -0.88209112   -7.7762397            0            0            0    -1.010201   -1.0682564   -185.06814 
   10500    186.56099    4653.3496    4597.6978    3354.5155     441.9491    1.8475769  -0.80439289   -18.490878   -91.562575  -0.86824929   -18.323043    1.8382425  -0.86066221   -8.5800732   -91.308041  -0.90521535   -7.8686879            0            0            0   -1.0099952    -1.069878   -185.06726 
   10600    186.56099    4735.2591    4791.2285    3622.3523    444.10644     1.953554  -0.88951224   -18.570415   -91.555422  -0.85510429   -18.441889    1.8841395  -0.96670581   -8.7293177    -91.35197  -0.94828694    -8.032643            0            0            0   -1.0097895   -1.0714997   -185.06637 
   10700    186.56099    4967.6028    4779.7048    3858.0211    445.41663    1.9243922  -0.94128664   -18.677172   -91.599144  -0.79158093   -18.517178    1.8803568   -1.0011668   -8.8768596   -91.392516  -0.84625059   -8.0970599            0            0            0   -1.0095837   -1.0731213   -185.06549 
   10800    186.56099    5076.3624    4954.9131    4059.9237    445.35879    1.8947806  -0.87998976   -18.776383   -91.597925  -0.76692548    -18.62671    1.8369293  -0.90850804    -8.993767   -91.373575  -0.82662828   -8.1625216            0            0            0   -1.0093779   -1.0747429   -185.06461 
   10900    186.56099    5117.6582    5170.5972    4306.5864    444.45695    1.9404405  -0.81954181   -18.852269   -91.540323  -0.72586282   -18.750093    1.8995868  -0.76295499   -9.1050248   -91.296375  -0.74817779   -8.3321891            0            0            0   -1.0091721   -1.0763646   -185.06373 
   11000    186.56099    5096.7128    5325.6537    4376.2384    444.04972     1.950132  -0.69931048   -18.758351   -91.552869  -0.67738415    -18.78515    1.9412075  -0.61742916   -8.9451786   -91.315871  -0.71982805   -8.4083584            0            0            0   -1.0089663   -1.0779862   -185.06285 
   11100    186.56099     5245.346     5225.514    4411.5475    443.88377    1.9372746  -0.73668704   -18.745731   -91.540442   -0.6926867   -18.797398    1.8654623  -0.73101515   -8.9573281   -91.330845   -0.8070547   -8.4903232            0            0            0   -1.0087605   -1.0796079   -185.06197 
   11200    186.56099    5198.1198    5039.7203    4296.1338    445.47392    1.8539607  -0.71563744   -18.633222   -91.542205  -0.73745397   -18.767311    1.8163293  -0.67578887    -8.753918   -91.344481  -0.83889729   -8.4552596            0            0            0   -1.0085547   -1.0812295   -185.06109 
   11300    186.56099    5099.5312     5061.475    3976.4958    443.42154    1.8722424  -0.76851914   -18.495032   -91.546317  -0.70317519   -18.724708    1.8426654  -0.75510044   -8.5988038   -91.347013   -0.7269973   -8.3713631            0            0            0   -1.0083489   -1.0828511   -185.06021 
   11400    186.56099     4760.838    4830.5279    3712.5271    445.01127    1.8620187  -0.70264457   -18.420336   -91.518006  -0.61745918   -18.594069    1.8508961  -0.75941747    -8.485131   -91.315393  -0.63278647   -8.2504214            0            0            0   -1.0081431   -1.0844728   -185.05933 
   11500    186.56099    4552.4473    4607.9046    3342.0023    443.12739    1.8119237  -0.75948002   -18.325754   -91.567993  -0.63403674   -18.460237    1.8060572  -0.77988984   -8.4348618   -91.291565  -0.63971611   -8.0545975            0            0            0   -1.0079373   -1.0860944   -185.05845 
   11600    186.56099    4378.4691    4192.7738    2901.4405    444.23938    1.8255089  -0.78082943   -18.180481   -91.565792  -0.64690973   -18.280465    1.8150514  -0.73922974   -8.2641123   -91.339109   -0.8100874    -7.780178            0            0            0   -1.0077315    -1.087716   -185.05757 
   11700    186.56099    4106.3945    4093.2622    2479.4451    440.26643     1.774702  -0.72443287   -18.042416   -91.472452  -0.66252274   -18.131806     1.751126  -0.64937544   -8.1862772   -91.273288  -0.74575207   -7.6620958            0            0            0   -1.0075257   -1.0893377   -185.05669 
   11800    186.56099    3978.6669    3926.4233    2272.2236    442.23188     1.754891  -0.74687563   -17.968874   -91.426963  -0.66555563   -18.033792    1.7415437  -0.72933467   -8.1230537   -91.201528  -0.67682568    -7.556674            0            0            0     -1.00732   -1.0909593    -185.0558 
   11900    186.56099    3781.3807    3718.3891    1822.2969    440.15476    1.7497848  -0.71714506   -17.960712   -91.433302   -0.7191803   -17.968737    1.7510382  -0.71638397   -8.1306497   -91.198786   -0.7851858   -7.5519016            0            0            0   -1.0071142   -1.0925809   -185.05492 
   12000    186.56099    3558.3383    3434.8811    1517.5356    441.19386    1.7050265  -0.76401163   -17.855783   -91.435565   -0.7608629   -17.817076    1.7142173  -0.70527843   -7.9834528   -91.190707  -0.78027272   -7.5350523            0            0            0   -1.0069084   -1.0942026   -185.05404 
   12100    186.56099    3295.1842    3268.8211    1131.3212    441.17983    1.6705107  -0.77889409   -17.776707   -91.466246  -0.79843364   -17.757442    1.7068336  -0.75744009   -7.9000991    -91.22176  -0.82983382   -7.3914412            0            0            0   -1.0067026   -1.0958242   -185.05316 
   12200    186.56099    3220.0377    3079.0133    874.27198    438.81241    1.6722027  -0.65782423   -17.638398   -91.411884  -0.77730177   -17.622573     1.709115   -0.6343938   -7.6452612   -91.184392  -0.80218561   -7.2106142            0            0            0   -1.0064968   -1.0974459   -185.05228 
   12300    186.56099    2994.0477    2780.0495    538.63741    438.83209    1.6665117  -0.58718198   -17.550056   -91.524267   -0.7450281    -17.57336    1.6746427  -0.56359489   -7.5892182   -91.281364  -0.78017692   -7.1547704            0            0            0    -1.006291   -1.0990675    -185.0514 
   12400    186.56099    2728.1278    2612.3446    99.043084    438.47847     1.680449  -0.69323347   -17.413402    -91.49776  -0.73820748   -17.370557     1.604081  -0.68507452   -7.4283777   -91.274395  -0.78705393   -6.9761874            0            0            0   -1.0060852   -1.1006891   -185.05052 
   12500    186.56099    2644.5601    2468.3165    -122.3961    438.73531    1.7530283  -0.70077065   -17.341427   -91.578357   -0.6876525    -17.21662    1.6806355  -0.70937854   -7.4436282   -91.384232  -0.75695181   -6.7853921            0            0            0   -1.0058794   -1.1023108   -185.04964 
   12600    186.56099    2392.9929    2361.5363    -409.0533    440.33209    1.7072116  -0.72944245   -17.419979   -91.654838  -0.67294909   -17.185659    1.5983811   -0.6237848   -7.4772346   -91.547572  -0.75419609   -6.7229772            0            0            0   -1.0056736   -1.1039324   -185.04876 
   12700    186.56099    2151.0806    2183.9337    -803.4689    439.16513     1.716279  -0.76556662   -17.371859    -91.62535  -0.74159031   -17.136301    1.6546879  -0.68023596   -7.4652744   -91.499775  -0.77155815    -6.684267            0            0            0   -1.0054678    -1.105554   -185.04788 
   12800    186.56099    1939.0531    2044.5557   -1151.1646    439.70203    1.7034744  -0.75418681   -17.315618   -91.667413  -0.83890907   -16.993107    1.6802481  -0.71069313   -7.4915214   -91.474488  -0.82905683   -6.5682504            0            0            0    -1.005262   -1.1071757     -185.047 
   12900    186.56099    1957.1452    1998.4456   -1260.7141    438.85666    1.7021695  -0.78200576   -17.368819   -91.648229  -0.85600764   -16.849382    1.6854733  -0.77530375   -7.5725081   -91.420937  -0.86920251    -6.384283            0            0            0   -1.0050562   -1.1087973   -185.04612 
   13000    186.56099    1747.8085    1792.3409   -1599.1513    439.44585     1.737312  -0.79699064   -17.397865   -91.677976  -0.83601334   -16.762618    1.7315506   -0.8641212   -7.5810576   -91.455472  -0.87525005   -6.4142485            0            0            0   -1.0048504    -1.110419   -185.04523 
   13100    186.56099    1667.3459    1643.7933   -2033.7003    438.08287    1.7031073  -0.75818767   -17.246081   -91.692347  -0.82328612   -16.719363     1.697816  -0.80059108   -7.4163583    -91.44688  -0.80896929   -6.3516664            0            0            0   -1.0046447   -1.1120406   -185.04435 
   13200    186.56099    1520.1352    1531.7069   -2259.5703    436.53107    1.7351598  -0.65663771   -17.244195   -91.701495  -0.92125767    -16.75537    1.7125281  -0.68490023   -7.3835124   -91.479324   -1.0219976   -6.3652828            0            0            0   -1.0044389   -1.1136622   -185.04347 
   13300    186.56099    1259.1951    1167.5941   -2541.6876    435.98382    1.7179881  -0.67873159   -17.191993   -91.741054  -0.88921025   -16.688842    1.6747532  -0.66800985   -7.2994843   -91.510276   -1.0299792   -6.3237267            0            0            0   -1.0042331   -1.1152839   -185.04259 
   13400    186.56099    1128.4861    996.70962   -3033.8227    436.74173    1.6483154  -0.77129711   -17.166244   -91.798158  -0.92583155   -16.648577    1.6073625   -0.7591444    -7.297514   -91.565195    -1.001543   -6.2217604            0            0            0   -1.0040273   -1.1169055   -185.04171 
   13500    186.56099    804.06648      887.671   -3282.0818    437.18398    1.6127756  -0.82510885   -17.123371   -91.779271  -0.94075862   -16.664548    1.5455535  -0.77715548   -7.1962495   -91.558267   -1.0435326   -6.2138679            0            0            0   -1.0038215   -1.1185271   -185.04083 
   13600    186.56099    721.86352     655.8833   -3631.8731    436.41249    1.5517745  -0.83721664   -17.036081   -91.778451  -0.92453539   -16.581206    1.5023176  -0.83145638   -7.1106131   -91.550795   -1.0045442   -6.1774022            0            0            0   -1.0036157   -1.1201488   -185.03995 
   13700    186.56099    482.69745    503.29703   -4025.0001    438.35179    1.5973446  -0.83472086   -17.066068   -91.740346  -0.86561304   -16.589697    1.6142306  -0.90977528   -7.2049207   -91.550278  -0.98019169   -6.2152035            0            0            0   -1.0034099   -1.1217704   -185.03907 
   13800    186.56099     494.8133    377.16231    -4004.546    435.97991    1.5388133  -0.87481324   -16.963526   -91.680946  -0.76574066   -16.743511    1.5290078  -0.92095434   -7.1161823   -91.503574   -0.8883229   -6.3474781            0            0            0   -1.0032041    -1.123392   -185.03819 
   13900    186.56099    348.56866    382.39793    -4197.421    436.03154    1.5512687  -0.83618009   -17.057776   -91.664438  -0.82788161     -16.7777    1.5528214  -0.88587097   -7.2237005   -91.439709   -0.9347344   -6.3403164            0            0            0   -1.0029983   -1.1250137   -185.03731 
   14000    186.56099    284.58413    232.46937   -4333.6356    435.06683    1.5237451  -0.86558592   -17.063014   -91.643468  -0.91980378   -16.813461    1.5206684  -0.89539601   -7.2587968   -91.405629   -1.0289251   -6.3647809            0            0            0   -1.0027925   -1.1266353   -185.03643 
   14100    186.56099    225.71148    96.889337   -4420.4106    437.52616    1.5284488  -0.86957798   -17.130083   -91.653866  -0.89941545   -16.825729    1.4999513  -0.84080367   -7.3508242   -91.388932  -0.94704175   -6.4311572            0            0            0   -1.0025867    -1.128257   -185.03555 
   14200    186.56099    249.96576    212.97794   -4319.0022    434.33025    1.4849847  -0.93070659   -17.146855   -91.697993  -0.91949677   -16.818733    1.4378638  -0.88643632   -7.3037168   -91.449306  -0.94807475   -6.4337874            0            0            0   -1.0023809   -1.1298786   -185.03466 
   14300    186.56099    342.20201    157.19711   -4281.6396    435.53634    1.5263212  -0.97204508   -17.034502   -91.740985  -0.97315228   -16.926633    1.5501887  -0.95492846   -7.1411899   -91.573805   -1.0840123   -6.5244527            0            0            0   -1.0021751   -1.1315002   -185.03378 
   14400    186.56099    372.93009    299.69299    -4192.397    438.76106    1.5007671  -0.93959688   -16.946356    -91.72727   -1.0583685   -16.952573    1.4937434  -0.94224047   -7.0669731   -91.571185   -1.1930497   -6.4999039            0            0            0   -1.0019694   -1.1331219    -185.0329 
   14500    186.56099     633.8283    586.07865   -3727.1946    435.40944     1.525809  -0.99625657   -16.982839   -91.749949   -1.0350833   -17.006328    1.4913112   -1.0455943   -7.1077843    -91.53746   -1.1678873   -6.5273612            0            0            0   -1.0017636   -1.1347435   -185.03202 
   14600    186.56099    771.53368    770.05452   -3365.9544    436.03775    1.4947645  -0.95125484   -16.938658   -91.829519   -1.0397682   -17.073974    1.4564776   -1.0207493   -7.0746802   -91.571689   -1.1431932   -6.5893314            0            0            0   -1.0015578   -1.1363651   -185.03114 
   14700    186.56099    1093.1055    1011.2193   -2855.4639    437.61358    1.5414753  -0.99576391   -16.918455   -91.774341  -0.96339136   -17.221321    1.5174086   -1.0416706   -7.0795213   -91.503427   -1.0880969   -6.8688268            0            0            0    -1.001352   -1.1379868   -185.03026 
   14800    186.56099    1411.5115    1340.4314    -2324.142    437.41618    1.5593625    -0.952834   -16.872713    -91.78225  -0.91691201   -17.262665    1.5885297   -1.0549863   -7.0269831   -91.518974   -0.9972309   -6.9256059            0            0            0   -1.0011462   -1.1396084   -185.02938 
   14900    186.56099    1498.9195     1562.514    -2116.232    439.54534    1.5204251  -0.95178406   -16.933499    -91.78639  -0.87932424   -17.246896    1.6165462   -1.0128993   -7.0730653   -91.566919  -0.97836066   -6.8828288            0            0            0   -1.0009404     -1.14123    -185.0285 
   15000    186.56099    1664.3538    1726.8057   -1730.4784    439.65766    1.4958223  -0.96476449   -16.965448   -91.820013  -0.88861556   -17.251293    1.5887667  -0.96022447   -7.0945325   -91.612373  -0.96065311   -6.9250867            0            0            0   -1.0007346   -1.1428517   -185.02762 
   15100    186.56099    1953.0824    1915.6091   -1166.5938    439.15185    1.5156918  -0.94810914   -16.964943   -91.836346   -0.9057375   -17.255634    1.5405563  -0.90962903   -7.0600379   -91.633504  -0.97811056   -6.8591488            0            0            0   -1.0005288   -1.1444733   -185.02674 
   15200    186.56099    2155.8631    2257.2246   -785.00255    439.51921     1.514636  -0.80275329   -17.071696   -91.790344  -0.89832418   -17.210578    1.4238985  -0.71655011   -7.2479741   -91.572329  -0.97117544   -6.7553526            0            0            0    -1.000323    -1.146095   -185.02586 
   15300    186.56099    2490.2962    2386.9092   -447.22491    440.11091     1.467633  -0.80784916   -17.139679   -91.741396  -0.93665757   -17.243189    1.3602751  -0.76120757   -7.3308353   -91.540416  -0.86623101   -6.7317783            0            0            0   -1.0001172   -1.1477166   -185.02498 
   15400    186.56099    2744.4139    2609.8579   -156.69178    440.43656    1.5215459  -0.83608121   -17.252491   -91.821131  -0.89013109   -17.310803    1.4836117  -0.76022971   -7.3547719   -91.604268  -0.89775357    -6.915465            0            0            0  -0.99991143   -1.1493382   -185.02409 
   15500    186.56099    2768.9347     2675.412    204.42696    441.97502     1.543572  -0.81750866   -17.324089   -91.821758  -0.91712904   -17.363264    1.5383989  -0.80786401   -7.4889768   -91.607651  -0.87577531   -7.0054258            0            0            0  -0.99970564   -1.1509599   -185.02321 
   15600    186.56099    2888.7978    2929.0061    424.10045    440.80962    1.5293401  -0.79339163   -17.392467   -91.778944  -0.92840267   -17.385942    1.5221252  -0.70372807   -7.5141996   -91.580635  -0.94769859   -6.9744471            0            0            0  -0.99949985   -1.1525815   -185.02233 
   15700    186.56099    3152.6574    3135.9758    782.86938     440.2694    1.5521841  -0.83906629   -17.475859   -91.782498  -0.95862725   -17.394101    1.5174972  -0.79131932   -7.5912282   -91.562516   -1.0739585   -7.0022483            0            0            0  -0.99929406   -1.1542031   -185.02145 
   15800    186.56099    3361.7058    3166.6571    967.03798    442.21176    1.5322275  -0.93407758   -17.641426    -91.82157  -0.95068455   -17.455507    1.4640914  -0.92334357   -7.7207614   -91.647417   -1.0230039   -7.0673373            0            0            0  -0.99908826   -1.1558248   -185.02057 
   15900    186.56099    3438.7461    3330.8869    1413.5752    442.90727    1.5244203  -0.99064224   -17.739552   -91.791184  -0.93282771   -17.637995    1.4758437   -1.0245986   -7.9598924   -91.614238   -1.0320781   -7.2580649            0            0            0  -0.99888247   -1.1574464   -185.01969 
   16000    186.56099    3521.1095    3535.4279    1518.8108      441.827    1.5647314   -1.0106302   -17.879022   -91.828109   -1.0097716   -17.714399    1.5009395   -1.0373938   -8.0600194   -91.662103   -1.1475294   -7.3132168            0            0            0  -0.99867668   -1.1590681   -185.01881 
   16100    186.56099    3715.1554    3624.2237    1757.8252    441.73443    1.5247265   -0.9723433   -17.984587   -91.787564  -0.93500702   -17.672482    1.4687086    -1.004543   -8.1487338   -91.648334   -1.1029209   -7.3433017            0            0            0  -0.99847089   -1.1606897   -185.01793 
   16200    186.56099    3923.0138    3873.5443    2170.9476    442.44774    1.4883229  -0.93175273    -18.12856   -91.742523  -0.87914547   -17.739862    1.4748685   -0.9941048    -8.303767   -91.566661   -1.0916233    -7.353828            0            0            0   -0.9982651   -1.1623113   -185.01705 
   16300    186.56099    4102.4042    4101.9711    2394.0144    443.08642    1.5310076  -0.90119091   -18.314132   -91.703011  -0.93503803   -17.764078    1.4910239  -0.92753997   -8.4951269   -91.523439   -1.0774524   -7.3512064            0            0            0   -0.9980593    -1.163933   -185.01617 
   16400    186.56099    4319.1778    4242.0249     2944.123    441.70612    1.5655317  -0.90312931   -18.499482   -91.640545   -0.9273669   -17.869569    1.5198899  -0.92007115   -8.7371881   -91.420274   -1.0177519   -7.4391388            0            0            0  -0.99785351   -1.1655546   -185.01529 
   16500    186.56099    4492.8314    4484.4152     3162.427    442.80367    1.6003728   -0.8983331   -18.604831   -91.661434  -0.97591955   -18.046676     1.549752  -0.93253346   -8.7519498   -91.417041   -1.0095523    -7.656353            0            0            0  -0.99764772   -1.1671762   -185.01441 
   16600    186.56099    4613.1654     4596.857    3395.4369    444.12422    1.5828703  -0.86593055   -18.691634   -91.646949  -0.94549893   -18.095353    1.5684303  -0.84879477    -8.862999    -91.44498  -0.94879956   -7.7110346            0            0            0  -0.99744193   -1.1687979   -185.01352 
   16700    186.56099    4844.0308    4727.4737    3705.6588    444.82517    1.6243964  -0.87360378   -18.779815   -91.623888  -0.89627047   -18.157554    1.6449878  -0.77759903   -8.9011306    -91.40274  -0.84248543   -7.8086383            0            0            0  -0.99723614   -1.1704195   -185.01264 
   16800    186.56099    4972.2983    4919.6156    3938.2047    446.11062    1.6657229  -0.85102348   -18.836009   -91.608422  -0.87336537   -18.139225    1.6349557  -0.80213118   -8.9761162   -91.394353  -0.84971544   -7.8035391            0            0            0  -0.99703034   -1.1720411   -185.01176 
   16900    186.56099    5073.1831    4990.5535    4009.5712    445.54336    1.7444255  -0.86511143   -18.861775   -91.628438  -0.73408687   -18.224224     1.743898  -0.86816063   -9.0953028   -91.357097  -0.74485163   -7.8639448            0            0            0  -0.99682455   -1.1736628   -185.01088 
   17000    186.56099    5146.0273    5066.6487    4168.1535    445.42211    1.7534188  -0.89017231   -18.833883   -91.623513  -0.70355256   -18.307069     1.766805  -0.90070371    -9.043478   -91.360865  -0.74253565   -7.9383004            0            0            0  -0.99661876   -1.1752844      -185.01 
   17100    186.56099     5219.905    5173.8733    4219.8219     446.0261    1.7958458  -0.93166284   -18.897425   -91.576546  -0.77104415   -18.370767    1.8415055   -0.8558558   -9.1232274   -91.340489  -0.87106225   -7.9746915            0            0            0  -0.99641297   -1.1769061   -185.00912 
   17200    186.56099     5105.176    5088.1675    4299.9296    446.54409    1.8346199  -0.87186759    -18.95223   -91.490052  -0.87835438   -18.439469    1.8862708  -0.80515487   -9.1656688   -91.260684   -1.0090899   -8.0723789            0            0            0  -0.99620717   -1.1785277   -185.00824 
   17300    186.56099    5205.6955    5146.7511    4243.4628    445.14376    1.8272025  -0.88249931   -18.823577   -91.462031  -0.86188758   -18.438881    1.8332315  -0.82192052   -9.0568615   -91.239096   -1.0130719   -8.0814646            0            0            0  -0.99600138   -1.1801493   -185.00736 
   17400    186.56099    5078.0781    4935.3305    4051.8741    445.90232    1.7853626  -0.78844355   -18.722851   -91.440103  -0.96567284   -18.450187    1.7975094  -0.76375678    -9.038774   -91.169823   -1.1742339   -8.1134265            0            0            0  -0.99579559    -1.181771   -185.00648 
   17500    186.56099    4796.8681    4767.3459    3747.2991    446.88677    1.7584305  -0.84329545   -18.584705    -91.49617    -1.013012   -18.390552    1.7679671  -0.84080192   -8.7815394   -91.275799   -1.1782101   -8.1323938            0            0            0   -0.9955898   -1.1833926    -185.0056 
   17600    186.56099    4678.5886    4574.3307    3432.9847    443.78166    1.7907842  -0.84286767   -18.461465   -91.515259  -0.94311524   -18.342891    1.8126789  -0.83821453   -8.6237662   -91.300371   -1.0651894   -8.0007292            0            0            0  -0.99538401   -1.1850142   -185.00472 
   17700    186.56099    4384.2251    4244.1891     2953.951    444.52899    1.7790986  -0.82083968   -18.286948   -91.446517  -0.83305327   -18.237048    1.8290575  -0.82280064     -8.42044   -91.267509  -0.82628097   -7.8394696            0            0            0  -0.99517821   -1.1866359   -185.00384 
   17800    186.56099    3983.6228    3958.0648    2456.8188    444.14103    1.7872443  -0.85824533   -18.128934   -91.502487   -0.8868774   -18.184768    1.7724199  -0.89081983   -8.3104293   -91.305493  -0.83363936   -7.7402606            0            0            0  -0.99497242   -1.1882575   -185.00295 
   17900    186.56099    3923.0658    3710.7665    2007.9934    443.67677    1.8707678  -0.94129278   -17.920454   -91.480899  -0.95728027   -18.020888    1.8396528  -0.96545506   -8.0895054   -91.219767  -0.98459955    -7.599408            0            0            0  -0.99476663   -1.1898791   -185.00207 
   18000    186.56099    3718.6374    3523.3033    1808.0567    442.94799    1.8808814  -0.91377688   -17.793148   -91.459656  -0.95836208   -17.890189     1.868311  -0.93761472   -7.9400192   -91.207326   -1.0249939   -7.5227446            0            0            0  -0.99456084   -1.1915008   -185.00119 
   18100    186.56099    3365.3353     3274.855    1405.1949    442.06331    1.7985255  -0.95366116    -17.67618   -91.437605  -0.91936537   -17.798728    1.7604526  -0.94368802   -7.8106775   -91.145182  -0.99937891   -7.4146161            0            0            0  -0.99435505   -1.1931224   -185.00031 
   18200    186.56099    3253.3422      3254.81    1041.6455    440.25576     1.801848  -0.95544862   -17.623499    -91.42944  -0.95525285   -17.695782    1.7803335  -0.93379947   -7.7087125   -91.159568   -1.0176062   -7.3526163            0            0            0  -0.99414925   -1.1947441   -184.99943 
   18300    186.56099    3134.1183    3074.6803    625.11506    439.82621    1.8124326  -0.92180365   -17.456427   -91.436168  -0.97540017   -17.681866    1.7794849  -0.95227954   -7.5717324   -91.142449   -1.0488398   -7.3311069            0            0            0  -0.99394346   -1.1963657   -184.99855 
   18400    186.56099    2926.4694    2895.2836    203.36052    440.09812    1.8014746  -0.85157672   -17.302948   -91.432152  -0.99689421   -17.584704     1.772887  -0.86822291   -7.4960842   -91.157649   -1.0703611   -7.2308651            0            0            0  -0.99373767   -1.1979873   -184.99767 
   18500    186.56099    2729.0394    2580.8014   -52.970535    441.41923    1.8609186  -0.85318999   -17.203429   -91.500093  -0.99020402   -17.444607    1.8459287  -0.87454819    -7.407893   -91.202082   -1.0482403   -7.0731846            0            0            0  -0.99353188    -1.199609   -184.99679 
   18600    186.56099    2570.4628     2564.828   -324.32975    439.81899    1.8088574  -0.87274133   -17.058908   -91.455727  -0.91532462   -17.298538    1.7986982  -0.82413969   -7.1843478   -91.227559   -1.0178865    -6.909841            0            0            0  -0.99332608   -1.2012306   -184.99591 
   18700    186.56099    2333.1115    2459.0313   -639.68752    439.28549    1.8011622  -0.97066122   -17.001115   -91.499832  -0.90670535   -17.238071     1.784318  -0.88560912   -7.1549287   -91.260142   -1.0488638   -6.8146654            0            0            0  -0.99312029   -1.2028522   -184.99503 
   18800    186.56099    2229.0184    2247.4437   -861.70779     439.7087    1.8301425   -1.0012502   -17.025258   -91.476346  -0.96465201    -17.15266    1.8103895  -0.93397682   -7.1643432   -91.275064   -1.0653416    -6.791615            0            0            0   -0.9929145   -1.2044739   -184.99415 
   18900    186.56099    2126.8338    1940.5628   -1298.3459    439.58867    1.8316952   -1.0475184   -16.945382   -91.491461  -0.88933845   -17.106985    1.8535931   -1.0138342    -7.092697   -91.271588  -0.95153284   -6.7520521            0            0            0  -0.99270871   -1.2060955   -184.99327 
   19000    186.56099    1971.0417     1881.139   -1374.2986    439.07674    1.7994592   -1.0346509   -16.906353   -91.573755   -0.9614281   -17.004519    1.8267785  -0.97292112   -7.0034768   -91.368676   -1.0093871   -6.6228689            0            0            0  -0.99250292   -1.2077172   -184.99239 
   19100    186.56099    1816.1564    1768.5151   -1616.9191    438.78205    1.8423768   -1.0451523   -16.992829   -91.548214  -0.94468601   -16.967316    1.8928207   -0.9593184   -7.1609595   -91.361865     -1.01933   -6.6319378            0            0            0  -0.99229712   -1.2093388    -184.9915 
   19200    186.56099      1670.28    1662.8474    -1957.998     439.6128    1.8006533  -0.97054379   -16.960984   -91.519714  -0.99189043    -17.02251    1.8408007  -0.95061051    -7.141569   -91.348998   -1.0398938   -6.6369889            0            0            0  -0.99209133   -1.2109604   -184.99062 
   19300    186.56099    1393.6932    1459.3873   -2337.6332    438.13605    1.8254731  -0.95800678   -16.999775   -91.486436  -0.99067545   -16.924438    1.8615795  -0.98068312   -7.1699631   -91.307955   -1.0619344   -6.5539367            0            0            0  -0.99188554   -1.2125821   -184.98974 
   19400    186.56099     1221.116    1161.2049   -2690.9333    437.93922    1.9005067    -1.042444   -17.034061   -91.481254   -0.9802398   -16.769994    1.8836579   -1.1545207   -7.1695448   -91.256845   -1.0933945   -6.4349878            0            0            0  -0.99167975   -1.2142037   -184.98886 
   19500    186.56099    1158.0073    1177.3696   -2829.6384    435.73331      1.86284   -1.1406754    -17.04855   -91.485976   -1.0516495   -16.690687    1.8051302   -1.2825233   -7.2023837   -91.248243   -1.1178782   -6.3469262            0            0            0  -0.99147396   -1.2158253   -184.98798 
   19600    186.56099    978.87341    884.09173   -3251.0708    436.96425    1.8093915   -1.1705859   -17.045444   -91.432401   -1.1592684   -16.696496    1.7412965   -1.2952167   -7.2093969   -91.213028   -1.2077316   -6.3104029            0            0            0  -0.99126816    -1.217447    -184.9871 
   19700    186.56099    712.77977    687.11606   -3570.6775    437.05048     1.768734   -1.0576548   -17.092488    -91.50928   -1.1108789   -16.685642    1.6930953   -1.0933242   -7.2488391   -91.272315    -1.151873    -6.304801            0            0            0  -0.99106237   -1.2190686   -184.98622 
   19800    186.56099    560.92407    506.84816   -3896.5678    438.54163    1.7143049   -1.1170248   -17.119314   -91.488737    -1.082656   -16.700173     1.686936    -1.138715   -7.2947113   -91.242485   -1.1728535   -6.3335969            0            0            0  -0.99085658   -1.2206902   -184.98534 
   19900    186.56099    449.28936    462.54705   -4027.4976     436.4672    1.6649215   -1.0395913   -17.067181   -91.522476   -1.0477327   -16.673919    1.5844077   -1.0440266   -7.2440369   -91.304003   -1.1691132    -6.344225            0            0            0  -0.99065079   -1.2223119   -184.98446 
   20000    186.56099    405.42721    360.79463   -4109.6868    437.27046    1.7184932   -1.0471898   -17.078761    -91.53752   -1.0152872   -16.705936    1.6964539  -0.99945415   -7.2216674   -91.315399   -1.0885888   -6.3829123            0            0            0  -0.99044499   -1.2239335   -184.98358 
   20100    186.56099    379.82005      389.761   -4196.3706     435.9546    1.7133394   -1.0603909   -17.206272   -91.497715  -0.95802174   -16.695568    1.6921014   -1.1025329   -7.3295672   -91.252497   -1.0524435   -6.3996029            0            0            0   -0.9902392   -1.2255552    -184.9827 
   20200    186.56099    347.06722    289.88681   -4419.3371    437.24396    1.7129276   -1.0326745   -17.229892    -91.47245   -1.0816254   -16.731122    1.6774371  -0.98947811   -7.3521143   -91.274834   -1.1609726   -6.4016565            0            0            0  -0.99003341   -1.2271768   -184.98182 
   20300    186.56099    422.82153     345.4602   -4241.7224     434.2014    1.7313756  -0.99650029   -17.228697    -91.56726   -1.1008801   -16.695574    1.7248453  -0.91740393   -7.2929254   -91.326535   -1.1541831   -6.3635165            0            0            0  -0.98982762   -1.2287984   -184.98093 
   20400    186.56099    324.07632    319.54845   -4255.7894    437.41514    1.7677796   -1.0159273   -17.186008    -91.54974   -1.1158634   -16.634726    1.8140583   -1.0094929   -7.3671268     -91.3498   -1.2385652   -6.1913239            0            0            0  -0.98962183   -1.2304201   -184.98005 
   20500    186.56099     517.5537    400.41339   -3992.9738    437.50257    1.8051981  -0.96615685   -17.193892   -91.580865   -1.1753459   -16.608485    1.8684182   -1.0201315   -7.4733489   -91.397934   -1.2314024   -6.1812292            0            0            0  -0.98941603   -1.2320417   -184.97917 
   20600    186.56099    612.04206     483.2397    -3839.928    438.58278    1.8413798  -0.92897015   -17.241721   -91.545947   -1.1876168   -16.671382    1.8291627  -0.96066683   -7.4467163   -91.393959   -1.2606029    -6.334983            0            0            0  -0.98921024   -1.2336633   -184.97829 
   20700    186.56099     813.2443    860.50377   -3483.3594    436.29842    1.9129464  -0.89884183   -17.196889   -91.527418   -1.1680599   -16.678458    1.8902709  -0.90562511   -7.3921302   -91.336623   -1.2597836   -6.2836562            0            0            0  -0.98900445    -1.235285   -184.97741 
   20800    186.56099    1114.6498    1137.6793   -2857.9827    438.28031    1.8804935  -0.95876402   -17.157621   -91.477278   -1.1001152   -16.753431    1.8270276  -0.89921246   -7.3469746   -91.275376   -1.1261994   -6.3913666            0            0            0  -0.98879866   -1.2369066   -184.97653 
   20900    186.56099    1382.7252    1444.9201   -2180.6733     438.9595    1.8402971   -0.9867697   -17.099716   -91.595588   -1.1112086    -16.82727     1.785412  -0.93038419   -7.2858106   -91.369502   -1.1740653   -6.4321088            0            0            0  -0.98859287   -1.2385283   -184.97565 
   21000    186.56099    1622.4749    1486.9829   -1973.3674    440.15617    1.8529023   -1.0400359   -17.119522   -91.588484   -1.1571496    -16.85696    1.8227163   -1.0625731   -7.2773388   -91.330759   -1.2382048   -6.6032861            0            0            0  -0.98838707   -1.2401499   -184.97477 
   21100    186.56099    1844.3556    1659.6721   -1706.1455    441.09755     1.846132   -1.0661031   -17.219938   -91.492183   -1.1819539   -17.008971    1.7902399  -0.98907045   -7.3854284   -91.210269   -1.2734094   -6.6473489            0            0            0  -0.98818128   -1.2417715   -184.97389 
   21200    186.56099    2076.1974    2093.7395   -1188.5455    439.86636    1.8776799   -1.0434488   -17.204255    -91.49861   -1.0977743   -17.091631    1.8815804  -0.96448742   -7.3830948   -91.223822   -1.2620325   -6.7022736            0            0            0  -0.98797549   -1.2433932   -184.97301 
   21300    186.56099    2256.9311     2231.585   -758.04101    440.28499    1.7702354   -1.1244365   -17.244063   -91.467173   -1.0532028   -17.167707    1.7839983   -1.0697987   -7.4238053   -91.204164   -1.1840048    -6.777255            0            0            0   -0.9877697   -1.2450148   -184.97213 
   21400    186.56099    2614.8661    2503.0419   -331.37883    440.56845    1.7644789   -1.0516272   -17.226972   -91.428325  -0.94761331   -17.167524    1.7995114  -0.98962041   -7.3960058   -91.169917   -1.0266473   -6.8052187            0            0            0   -0.9875639   -1.2466364   -184.97125 
   21500    186.56099    2752.0417     2710.202   -13.584939    440.73887    1.7948154  -0.99553809   -17.260301   -91.404378  -0.97554425   -17.254983    1.8189169  -0.98641441   -7.4342109   -91.187495   -1.0742815   -6.9080242            0            0            0  -0.98735811   -1.2482581   -184.97036 
   21600    186.56099    2888.9569     2858.022    290.73797    441.42001    1.7799338    -1.022214   -17.311862    -91.38996  -0.99146963   -17.282112    1.7773597   -1.0383228   -7.4930919   -91.187174   -1.0436695   -6.9028815            0            0            0  -0.98715232   -1.2498797   -184.96948 
   21700    186.56099    3009.4517    2936.0513    528.99687    442.14716    1.7933411   -1.0360428   -17.381938   -91.425821   -1.0200955   -17.405917    1.7458086   -1.0723004   -7.5464992    -91.20227   -1.0498176     -7.04084            0            0            0  -0.98694653   -1.2515013    -184.9686 
   21800    186.56099    3167.0203    3147.1222    888.01257     442.0446    1.7778806   -1.0324277   -17.383454   -91.430745   -1.0681941   -17.572623    1.7601336    -1.097959   -7.5677662   -91.218818   -1.0969048   -7.2070534            0            0            0  -0.98674074    -1.253123   -184.96772 
   21900    186.56099    3439.0796     3196.419    1091.8557    443.31827    1.8145357   -1.1306192   -17.513494   -91.495569   -1.0393971   -17.702869    1.7947283   -1.2047181   -7.7009246   -91.302265   -1.1124152   -7.4071362            0            0            0  -0.98653494   -1.2547446   -184.96684 
   22000    186.56099    3641.9846    3560.0393    1568.0344    441.12398    1.8025252   -1.1248395   -17.697539   -91.527267   -1.0509737   -17.781386    1.7779951   -1.0958425   -7.8629902   -91.305232   -1.1402906   -7.4911849            0            0            0  -0.98632915   -1.2563663   -184.96596 
   22100    186.56099    3786.0668    3690.3824    1789.8569    440.87746    1.7464394   -1.0921084   -17.740418   -91.511677   -0.9841079    -17.77604    1.7165993   -1.1080463   -7.9304006     -91.2896   -1.0467877   -7.4710758            0            0            0  -0.98612336   -1.2579879   -184.96508 
   22200    186.56099    3716.0721    3684.5521    1915.7106    443.33976    1.7991457  -0.98695768   -17.812611   -91.418635  -0.95504068   -17.887392     1.731759   -1.0373142   -7.9961849   -91.187081  -0.95454244   -7.5113842            0            0            0  -0.98591757   -1.2596095    -184.9642 
   22300    186.56099    3845.8706    3897.4571    2106.9794    443.87199     1.842022   -1.0476767   -17.903841   -91.415227  -0.92739237   -17.948676    1.7791322   -1.0389922    -8.088577   -91.208037  -0.95755153   -7.5465424            0            0            0  -0.98571178   -1.2612312   -184.96332 
   22400    186.56099    4119.1659    4079.7926    2430.5852    443.10905     1.829185   -1.1072129   -17.988022   -91.404502   -1.0190932   -17.912678    1.7611333   -1.1133089   -8.1631366    -91.24597     -1.11352    -7.540063            0            0            0  -0.98550598   -1.2628528   -184.96244 
   22500    186.56099    4370.8654    4351.2078    2810.6231    442.22237    1.7714342   -1.2201563   -18.042948   -91.504595  -0.99042564    -17.97376    1.7106117   -1.2344848    -8.282726   -91.363316   -1.0627731    -7.623888            0            0            0  -0.98530019   -1.2644744   -184.96156 
   22600    186.56099    4409.2298    4541.5826    3189.9055     445.3241    1.7819198   -1.1713848   -18.188546   -91.479802   -1.0432622   -18.067587    1.7464853   -1.0818908   -8.4035471   -91.323701   -1.0897101   -7.6991478            0            0            0   -0.9850944   -1.2660961   -184.96068 
   22700    186.56099    4733.5251    4655.3813    3391.0841    444.72303     1.787815   -1.0313973   -18.319914   -91.457683   -1.0274343   -18.101012    1.7934154  -0.94249581     -8.56528   -91.248427   -1.1316513   -7.6945453            0            0            0  -0.98488861   -1.2677177   -184.95979 
   22800    186.56099    4768.6027    4646.5836     3600.907     446.3665    1.7982682  -0.96075988   -18.441201   -91.461646   -1.0731459   -18.200339    1.8280165  -0.94040834    -8.645359   -91.179638   -1.1710627   -7.8018239            0            0            0  -0.98468281   -1.2693393   -184.95891 
   22900    186.56099    4922.2866    4933.6396    3851.1058    444.48725    1.7642716  -0.96641491   -18.588664   -91.451129   -1.1561405   -18.244297    1.7807602  -0.96168102   -8.8703765   -91.178628   -1.2930169   -7.9525928            0            0            0  -0.98447702    -1.270961   -184.95803 
   23000    186.56099    5051.0516    5074.4436    3974.3824    446.53784    1.8011117  -0.91663936   -18.638314   -91.496492   -1.1142983   -18.372686    1.8108702  -0.82024846   -8.9093262   -91.224923   -1.2276077   -8.0365774            0            0            0  -0.98427123   -1.2725826   -184.95715 
   23100    186.56099    5152.5348    5014.8605    4058.5392    446.80254    1.8374008  -0.94802961   -18.753665   -91.518524   -1.0804229   -18.456449    1.8360152  -0.87327538   -8.9741517    -91.25219   -1.1814005    -8.086168            0            0            0  -0.98406544   -1.2742043   -184.95627 
   23200    186.56099    5250.0906    5257.5493    4173.3496    444.04831     1.822045  -0.99089021   -18.863335   -91.532878   -1.0848499   -18.478931    1.7437731   -0.9523559   -9.0843345   -91.225657   -1.1645864   -8.1222122            0            0            0  -0.98385965   -1.2758259   -184.95539 
   23300    186.56099    5206.7895    5119.6889    4144.6886    447.12774    1.7838217   -1.0592716   -18.869572   -91.477206   -1.1074574   -18.446451    1.7218398   -1.0686342   -9.1391838   -91.207947    -1.165478   -8.1399848            0            0            0  -0.98365385   -1.2774475   -184.95451 
   23400    186.56099    5119.4933    5125.5306    4170.5571    448.00806    1.8263528    -1.014944   -18.858935   -91.510556    -1.090508   -18.325373    1.7790051    -1.015941   -9.1148995   -91.331441   -1.1237173    -8.031164            0            0            0  -0.98344806   -1.2790692   -184.95363 
   23500    186.56099    5021.7623    4925.7633    3974.0402    447.29414    1.8660935  -0.98062603   -18.786462   -91.521318   -1.0175211   -18.368501    1.8201427   -1.0462889    -9.017127   -91.323425   -1.0973213   -8.1132943            0            0            0  -0.98324227   -1.2806908   -184.95275 
   23600    186.56099    5000.5153     4883.087    3914.5993    444.39602    1.9054016   -1.0157075    -18.72642   -91.548502   -1.0540162    -18.32354    1.8213165   -1.0300696   -9.0150914   -91.381661   -1.1270814   -8.1036309            0            0            0  -0.98303648   -1.2823124   -184.95187 
   23700    186.56099    4643.5313    4619.5112    3284.7899    446.87655     1.886051   -0.9397517   -18.678583   -91.453149   -1.0944627   -18.239438    1.8700475  -0.91236405   -8.9408512   -91.252999   -1.1270889   -7.9280684            0            0            0  -0.98283069   -1.2839341   -184.95099 
   23800    186.56099    4373.6306    4364.0508    2797.9943    444.82308    1.9132034  -0.92567887   -18.579679   -91.417468   -1.0696669   -18.167668    1.9172918  -0.90120855   -8.7853636   -91.231471   -1.1833616   -7.8435696            0            0            0  -0.98262489   -1.2855557   -184.95011 
[...]
  999000    186.56099    3280.1544    3305.9155    658.44475    445.06965    3.7211325   -16.768682   -9.5515737   -89.494362   -16.803155   -9.4284976    3.6895256   -16.773725  0.040936964   -89.287517   -16.819575   0.74534683            0            0            0    1.0242601   -17.099757   -176.36028 
  999100    186.56099    3250.7718    3247.8045    694.19323    443.44241     3.759445    -16.80839   -9.5916662   -89.515655   -16.793356   -9.4250344    3.7642568   -16.766529  0.076494496   -89.280442   -16.810491   0.72261494            0            0            0    1.0244659   -17.101378   -176.35939 
  999200    186.56099    3323.1201    3278.1141    743.66473    442.84642    3.7865903   -16.830429   -9.5515142    -89.55612   -16.786744   -9.5423947    3.7512624   -16.807747   0.15455862   -89.362124   -16.829449     0.598598            0            0            0    1.0246717      -17.103   -176.35851 
  999300    186.56099    3302.9889    3253.0092    607.25552    445.50717    3.7652959     -16.8087    -9.540715    -89.59473   -16.776706   -9.5945049    3.7334804    -16.81367   0.12530193   -89.398454   -16.865928   0.59779684            0            0            0    1.0248775   -17.104622   -176.35763 
  999400    186.56099    3272.6969    3193.5284    655.53298    443.87819    3.7670281   -16.808066    -9.498377   -89.619401   -16.791411   -9.6174358    3.7380829   -16.832864   0.14876512   -89.402626   -16.868882    0.5248251            0            0            0    1.0250833   -17.106243   -176.35675 
  999500    186.56099     3093.698    3158.3922     575.0665    444.71238    3.7775815   -16.796096   -9.4787315   -89.584876    -16.68366   -9.6098357    3.7526441   -16.784541   0.21421966   -89.371543   -16.730235   0.53677837            0            0            0    1.0252891   -17.107865   -176.35587 
  999600    186.56099    3050.7234    3058.1585    501.91043    445.06395    3.7801839   -16.739415   -9.5671987   -89.556673   -16.706484   -9.5706351     3.758636   -16.715786  0.061587551   -89.251911   -16.752124   0.65385465            0            0            0    1.0254949   -17.109487   -176.35499 
  999700    186.56099    3103.2256    3151.7566    483.51089    443.52135    3.7654596   -16.755517   -9.5649909   -89.584308   -16.651156   -9.5361367     3.741525   -16.752585  0.028217597   -89.336372   -16.664473   0.67495696            0            0            0    1.0257006   -17.111108   -176.35411 
  999800    186.56099    3224.1355     3184.178    465.18026    442.13792    3.7717757   -16.752883    -9.570632   -89.570944   -16.671421   -9.4485532    3.7529116   -16.746144   0.07475988   -89.365466   -16.725089   0.73372337            0            0            0    1.0259064    -17.11273   -176.35323 
  999900    186.56099    3070.2712    3017.6447     314.0665    444.12915     3.743047   -16.767258   -9.5461581   -89.536518   -16.696225   -9.3589115    3.7343982   -16.770797   0.16308647   -89.355634   -16.783029    0.8335583            0            0            0    1.0261122   -17.114352   -176.35235 
 1000000    186.56099     3021.043    3006.5152    212.37413    442.87021    3.6935448   -16.850482   -9.5403404   -89.490327   -16.735191   -9.3699123    3.6963607   -16.835694  0.084111746   -89.239048   -16.860917   0.81356669            0            0            0     1.026318   -17.115973   -176.35147 
 1000100    186.56099     2882.662    2982.1091    118.39519    443.16971    3.6857687   -16.835486   -9.5338486    -89.47877   -16.794434   -9.3159043    3.7065266    -16.83758   0.11987015    -89.22946   -16.950075   0.84804039            0            0            0    1.0265238   -17.117595   -176.35059 
 1000200    186.56099    2913.2317     2937.533   -8.4470148    443.56765    3.7268215   -16.848337   -9.4989827   -89.489668   -16.826674   -9.2630629    3.6929297   -16.823114     0.105679   -89.230094   -16.960762   0.89801366            0            0            0    1.0267296   -17.119216   -176.34971 
 1000300    186.56099    2820.1221    2934.1605    46.605873    443.15792     3.745566   -16.877341   -9.5441853   -89.500302   -16.842356   -9.2489916    3.6987601    -16.85015    0.0900952   -89.269428   -16.919018    0.8928927            0            0            0    1.0269354   -17.120838   -176.34882 
 1000400    186.56099    2901.3491    2820.5689   -159.41792    444.94053    3.7223757   -16.833846   -9.5032488   -89.550366   -16.826528   -9.2482822    3.6331967   -16.835599   0.14448353   -89.318671   -16.890172    1.0062273            0            0            0    1.0271412    -17.12246   -176.34794 
 1000500    186.56099    2894.2234    2907.5991    59.033769    444.66179    3.6656016      -16.795   -9.4321755   -89.544002   -16.816959   -9.1956716    3.6255447   -16.809378   0.20610897   -89.308457   -16.895494    1.0417969            0            0            0     1.027347   -17.124081   -176.34706 
 1000600    186.56099    2823.4116    2798.7032   -105.72878    444.80321    3.6780008   -16.767816   -9.4339505   -89.555257   -16.806495    -9.177965    3.6735031   -16.746835   0.22730502   -89.341782   -16.855494    1.0389339            0            0            0    1.0275528   -17.125703   -176.34618 
 1000700    186.56099    2767.9482    2777.1397   -182.35911    443.60786    3.7215661   -16.808065   -9.4977499   -89.576942   -16.831916   -9.1135581    3.7252218   -16.824997   0.16279882   -89.350018   -16.896906    1.0688072            0            0            0    1.0277586   -17.127325    -176.3453 
 1000800    186.56099    2740.4751    2792.4409   -148.66303    444.05451    3.7531582   -16.753724   -9.4964402   -89.587196   -16.807525   -9.0782623    3.7297243    -16.75321   0.19461995   -89.405338   -16.825559    1.0987779            0            0            0    1.0279644   -17.128946   -176.34442 
 1000900    186.56099    2690.9181    2732.5743   -254.05019    443.34702    3.7515992   -16.715012   -9.5612744   -89.615549   -16.768741   -9.1192735       3.7353   -16.701644   0.12042319   -89.449728   -16.835683    1.0740373            0            0            0    1.0281701   -17.130568   -176.34354 
 1001000    186.56099     2755.872    2832.0712   -328.29646    441.57998    3.7711103   -16.663091   -9.5676335   -89.626745   -16.679311    -9.176079    3.7697426   -16.658597  0.040970389   -89.440649   -16.754504     1.002914            0            0            0    1.0283759    -17.13219   -176.34266 
 1001100    186.56099    2560.2957     2460.582   -530.35335    444.79981    3.7677738   -16.652848   -9.5276874   -89.652775   -16.719418   -9.1699146    3.7901888   -16.664397  0.062043687   -89.486174   -16.753015    1.0273891            0            0            0    1.0285817   -17.133811   -176.34178 
 1001200    186.56099    2585.1896    2624.2193   -513.53412    442.68541    3.7263963   -16.684448   -9.5712279   -89.676775    -16.75068    -9.172624    3.7699496    -16.65862  0.069250201   -89.496492   -16.830896    1.0045327            0            0            0    1.0287875   -17.135433    -176.3409 
 1001300    186.56099    2527.0132    2582.6263   -642.55722    442.23954    3.7356726   -16.718957   -9.5052296   -89.709004   -16.801467   -9.2375104    3.7679258   -16.701696   0.14190934   -89.456114   -16.911239   0.89647716            0            0            0    1.0289933   -17.137054   -176.34002 
 1001400    186.56099    2419.4582    2448.4776   -698.74183    443.74849    3.6937648   -16.781072   -9.4416329   -89.659137   -16.836815   -9.2133642    3.7224134   -16.759099   0.15100789   -89.434191   -16.954855   0.90411272            0            0            0    1.0291991   -17.138676   -176.33914 
 1001500    186.56099    2415.3761    2446.8986   -828.74008    443.77433    3.7089692   -16.825586     -9.39198     -89.6578    -16.88161   -9.1531631     3.678118    -16.86025   0.22484163   -89.412706   -17.004596    1.0188235            0            0            0    1.0294049   -17.140298   -176.33825 
 1001600    186.56099    2479.8218    2425.4021   -834.39314    441.56469    3.6753604   -16.846068   -9.3242397   -89.645173   -16.846815   -9.1400127    3.6409965   -16.832962   0.36372482   -89.411977   -16.950538    1.0217304            0            0            0    1.0296107   -17.141919   -176.33737 
 1001700    186.56099    2539.0462    2485.4026   -699.74558    441.87515    3.6081851   -16.832333   -9.3208329   -89.619825   -16.835587    -9.103853     3.551691    -16.76738   0.38572165   -89.396821   -16.934182     1.118629            0            0            0    1.0298165   -17.143541   -176.33649 
 1001800    186.56099     2370.817    2241.1873   -999.05364    443.31817    3.6131569   -16.838599   -9.2718014   -89.609068   -16.783094   -9.0860603     3.562207   -16.831976    0.4480988   -89.352938   -16.874174    1.1491907            0            0            0    1.0300223   -17.145163   -176.33561 
 1001900    186.56099    2370.2404    2445.7955   -970.66991    443.16307    3.6312969   -16.812122   -9.2226027   -89.651714   -16.756145   -9.0675652    3.6410028   -16.837203    0.4413824   -89.430738    -16.76754    1.1501471            0            0            0    1.0302281   -17.146784   -176.33473 
 1002000    186.56099    2456.6054     2465.099   -713.26166    441.48873     3.569402   -16.834827   -9.1755826   -89.622354   -16.741624   -9.0325357    3.5947265   -16.909524   0.48661177   -89.391768   -16.783004    1.1711097            0            0            0    1.0304339   -17.148406   -176.33385 
 1002100    186.56099     2596.358    2536.4699   -629.35035    440.55599     3.613734   -16.832079   -9.1429373    -89.64297   -16.749787   -9.0387012     3.569666   -16.829839   0.51358693    -89.43378   -16.772429    1.1247633            0            0            0    1.0306397   -17.150028   -176.33297 
 1002200    186.56099    2476.2925    2500.1085   -675.99881    444.05567    3.6376296   -16.788377   -9.1801546   -89.627576   -16.788672   -9.0013957    3.5874125   -16.795599   0.44570439    -89.38795   -16.817116    1.1602183            0            0            0    1.0308454   -17.151649   -176.33209 
 1002300    186.56099    2526.6503    2530.9134   -697.61649    441.72447    3.6485606    -16.78046   -9.1987938   -89.639933   -16.749375   -9.0886038    3.5413745   -16.766344   0.42790487   -89.387557   -16.729506    1.0905873            0            0            0    1.0310512   -17.153271   -176.33121 
 1002400    186.56099     2494.781    2517.6057    -694.5886    442.41678    3.6378564   -16.786886   -9.2603483   -89.675343   -16.706076   -9.1254046    3.5665132   -16.749186   0.43649387   -89.444298   -16.727202     1.059961            0            0            0     1.031257   -17.154892   -176.33033 
 1002500    186.56099    2635.4799    2472.5588   -599.95552    441.73359    3.6335304   -16.725736   -9.2910253   -89.681099   -16.700947    -9.172794    3.5989392   -16.674144   0.38455427   -89.475871   -16.757282    1.0254253            0            0            0    1.0314628   -17.156514   -176.32945 
 1002600    186.56099    2574.9252    2627.7015   -564.96556    441.83914     3.621399   -16.728456   -9.3116728   -89.678577   -16.729744   -9.2535372    3.6368337   -16.691595   0.35832586      -89.489   -16.831586   0.93301295            0            0            0    1.0316686   -17.158136   -176.32857 
 1002700    186.56099    2437.4649    2572.7155   -586.62788    444.35736    3.7007186   -16.771399   -9.3427787   -89.670769   -16.809092   -9.2907596     3.688206   -16.751338   0.30114652   -89.469349   -16.866528   0.91346735            0            0            0    1.0318744   -17.159757   -176.32769 
 1002800    186.56099     2655.226     2576.034   -441.60454    442.99959    3.6759623   -16.850399   -9.3394073   -89.666161   -16.889159   -9.2978224    3.7189969   -16.825831    0.2645516   -89.457821   -17.001545   0.88311266            0            0            0    1.0320802   -17.161379    -176.3268 
 1002900    186.56099    2722.8431    2688.2491   -360.75575    441.70071    3.6333332   -16.851908     -9.39297   -89.631748   -16.926697   -9.2871754    3.6281709   -16.837797   0.19225018   -89.454052   -17.019049   0.85129148            0            0            0     1.032286   -17.163001   -176.32592 
 1003000    186.56099    2716.1934    2789.6568    -300.5293    442.16159    3.6690148   -16.796981   -9.4076907   -89.610761   -16.911866    -9.358218    3.5789244   -16.805461   0.14896405   -89.388333   -17.031007   0.79598587            0            0            0    1.0324918   -17.164622   -176.32504 
 1003100    186.56099    2840.4193    2769.8571   -150.58097    441.57783    3.6648111   -16.757455   -9.4033781   -89.588653   -16.896324    -9.328338     3.571407   -16.727788   0.24935479   -89.375039   -16.951271   0.82512757            0            0            0    1.0326976   -17.166244   -176.32416 
 1003200    186.56099    2818.6784    2760.0525   -114.65777    442.31999    3.6517552   -16.762511   -9.4012736   -89.577629   -16.925228    -9.368827     3.620855    -16.73847   0.26324313   -89.319193   -16.986236   0.81539382            0            0            0    1.0329034   -17.167866   -176.32328 
 1003300    186.56099    2856.9972    2863.6031   -103.41446    443.86463    3.6746219   -16.784592   -9.3562219   -89.580288   -16.880092   -9.3353362    3.6622139   -16.732692   0.29410338   -89.321642    -16.91055   0.91746929            0            0            0    1.0331092   -17.169487    -176.3224 
 1003400    186.56099     3049.539    3020.1644    26.167065    441.84939    3.6903701   -16.813938   -9.3807951   -89.552027   -16.861745    -9.330132    3.6760364   -16.801979   0.29192856   -89.292023   -16.938429   0.84164973            0            0            0     1.033315   -17.171109   -176.32152 
 1003500    186.56099    2894.6582    2853.8541   -65.523696    443.30445    3.6991141   -16.946687   -9.3598027   -89.470688   -16.902915   -9.2958325    3.6781566   -16.931621   0.28212246   -89.217963   -16.944091   0.82867775            0            0            0    1.0335207    -17.17273   -176.32064 
 1003600    186.56099    2957.4129    2863.1657   -73.887303    442.28644    3.7395406   -16.933115   -9.3697437   -89.502298   -16.899183   -9.2588818    3.7210714   -16.945366   0.27448647   -89.271645   -16.937087   0.89391764            0            0            0    1.0337265   -17.174352   -176.31976 
 1003700    186.56099     3012.327    2943.5721    18.866715    444.03593    3.7340639   -16.990256   -9.4150656   -89.462022   -16.872071   -9.2271763    3.7100536   -17.031821   0.26956642   -89.242464    -16.96484   0.99275239            0            0            0    1.0339323   -17.175974   -176.31888 
 1003800    186.56099    2936.3305    2898.1167    111.24983    443.73795    3.8071479   -16.957687    -9.409002   -89.481293   -16.884688   -9.2385099    3.8141994   -17.015269   0.25361489   -89.243284   -16.938067   0.94825657            0            0            0    1.0341381   -17.177595     -176.318 
 1003900    186.56099    3053.0162    3043.5936    300.70776    442.16773    3.7997424   -16.931108   -9.4271274   -89.504828   -16.861247   -9.3143824    3.7868484   -16.936882   0.20555712   -89.268438   -16.982532   0.83813281            0            0            0    1.0343439   -17.179217   -176.31712 
 1004000    186.56099    3123.4068    3025.7176    347.93768    442.05816    3.8371984   -16.953642    -9.455913   -89.528738   -16.848477   -9.2381534    3.8142724   -16.942588   0.21279451   -89.377644   -16.984715   0.94020874            0            0            0    1.0345497   -17.180839   -176.31623 
 1004100    186.56099     3107.016    2958.2957    294.99861    444.30475    3.8755823   -16.982088   -9.5635154   -89.516062    -16.87224   -9.2548679    3.8428533    -16.99002  0.087708689   -89.335384   -16.992276   0.90036956            0            0            0    1.0347555    -17.18246   -176.31535 
 1004200    186.56099    3139.2862    3059.0922     452.3279    444.18814    3.8850255   -16.996162   -9.5955118   -89.511408   -16.898442   -9.3327086    3.8573186   -17.000574  0.024302326   -89.342007   -17.004388   0.81421148            0            0            0    1.0349613   -17.184082   -176.31447 
 1004300    186.56099    3232.1258    3204.1085    571.57238    443.18519    3.9009661   -16.996233   -9.6127735   -89.463362   -16.920809   -9.3673499    3.9213218   -16.992366  0.015158057     -89.2294   -17.013721   0.81956569            0            0            0    1.0351671   -17.185704   -176.31359 
 1004400    186.56099     3269.571    3225.2134    609.68696     443.7617    3.9018461   -16.993527   -9.6300752   -89.420199   -16.905602   -9.3603035    3.9782614   -16.965311  0.022457099   -89.139125     -16.9841   0.80100374            0            0            0    1.0353729   -17.187325   -176.31271 
 1004500    186.56099    3429.1304    3290.3787    737.65874    442.95558    3.9164959   -16.920726   -9.7124146   -89.415025   -16.861234   -9.4075769    3.9805315   -16.924512 -0.019704654   -89.152869   -16.897709   0.77644375            0            0            0    1.0355787   -17.188947   -176.31183 
 1004600    186.56099    3390.6197    3295.2111    775.53333    443.91469    3.8889436   -16.916946   -9.7059284    -89.43484   -16.813157   -9.4029392    3.8825246   -16.940181 0.0012084474   -89.137082   -16.808823   0.74528928            0            0            0    1.0357845   -17.190568   -176.31095 
 1004700    186.56099    3351.8675    3341.0532    707.53055    443.13114    3.8842738   -16.875732   -9.6836993   -89.422314   -16.809817   -9.4046826    3.8605908   -16.861476 0.0024690241   -89.164669   -16.825476   0.82117197            0            0            0    1.0359902    -17.19219   -176.31007 
 1004800    186.56099     3426.242    3297.2645    750.24081    443.72364    3.8898085   -16.830808   -9.7086573   -89.428378   -16.895207   -9.3391731    3.8573285   -16.788515 -0.077375728   -89.183008   -16.912518   0.84472441            0            0            0     1.036196   -17.193812   -176.30919 
 1004900    186.56099    3358.4636     3401.089    859.69647    444.68063    3.8154404    -16.82149   -9.6861615   -89.442394   -16.968753   -9.3071369    3.7782852   -16.716752 -0.068411565   -89.205808   -17.060145   0.87271461            0            0            0    1.0364018   -17.195433   -176.30831 
 1005000    186.56099    3343.2877    3340.6408    767.85236    443.06035    3.8153573   -16.805693   -9.6952374   -89.418274   -17.035206   -9.2412421    3.7798708   -16.740729 -0.028534696   -89.178688   -17.160189   0.94283268            0            0            0    1.0366076   -17.197055   -176.30743 
Loop time of 1986.42 on 512 procs for 1000000 steps with 68080 atoms

Performance: 86.991 ns/day, 0.276 hours/ns, 503.418 timesteps/s
99.9% CPU use with 512 MPI tasks x no OpenMP threads

MPI task timing breakdown:
Section |  min time  |  avg time  |  max time  |%varavg| %total
---------------------------------------------------------------
Pair    | 0.27969    | 944.99     | 1146.1     | 876.3 | 47.57
Neigh   | 0.027422   | 14.786     | 17.737     | 143.9 |  0.74
Comm    | 4.8603     | 377.59     | 599.19     | 570.3 | 19.01
Output  | 3.6667     | 3.7432     | 3.9012     |   0.7 |  0.19
Modify  | 17.127     | 21.683     | 50.455     | 160.9 |  1.09
Other   |            | 623.6      |            |       | 31.40

Nlocal:    132.969 ave 168 max 0 min
Histogram: 48 0 16 0 2 14 0 43 169 220
Nghost:    1391.85 ave 1655 max 0 min
Histogram: 48 0 0 8 8 16 0 0 16 416
Neighs:    9356.28 ave 12324 max 0 min
Histogram: 64 0 0 0 8 8 0 63 195 174

Total # of neighbors = 4790414
Ave neighs/atom = 70.3645
Neighbor list builds = 26841
Dangerous builds = 0



Total wall time: 0:33:19
