LAMMPS (16 Feb 2016)
# ------------------------ INITIALIZATION ----------------------------
echo both
#log		log.c
units           metal
dimension       3
boundary        p p p
atom_style      atomic
shell         mkdir  cfg
WARNING: Shell command 'mkdir' failed with error 'File exists' (../input.cpp:1126)
shell         mkdir  dump
WARNING: Shell command 'mkdir' failed with error 'File exists' (../input.cpp:1126)


# ----------------------- ATOM DEFINITION & Force Field -------------
read_data     NPT_relaxed.data       ##Read file dumped from simulation 1
  orthogonal box = (-64.7831 -8.09788 -298.79) to (64.7831 8.09788 21.076)
  8 by 2 by 32 MPI processor grid
  reading atoms ...
  33024 atoms
  reading velocities ...
  33024 velocities

pair_style      eam/alloy
pair_coeff  	  * * Al_wkg_MSMSE_2009.set Al

#---------------------- DEFINE Laser GERION and GROUP ----------------
region       R1  block -75  75  INF  INF  INF  5  units box
group        G1 region R1
33024 atoms in group G1
group        G2 subtract all G1
0 atoms in group G2


#define     temperature/pressure calculation  group
variable    x1atom atom "x>=0  &&  x<4 &&  z>-40 && z<1"     ##NEW!!!!!!!!!!!!
variable    x2atom atom "x>=-64.78  &&  x<-60.78 &&  z>-40 && z<1"
variable    x3atom atom "x>=0  &&  x<4 &&  z>-20 && z<1"
variable    x4atom atom "x>=-64.78  &&  x<-60.78 &&  z>-20 && z<1"
variable    x5atom atom "x>=196  &&  x<200 &&  z>-40 && z<1"

group       x1atom variable x1atom
154 atoms in group x1atom
group       x2atom variable x2atom
144 atoms in group x2atom
group       x3atom variable x3atom
78 atoms in group x3atom
group       x4atom variable x4atom
73 atoms in group x4atom
group       x5atom variable x5atom
0 atoms in group x5atom


compute      COM1x x1atom com
compute      COM2x x2atom com
compute      COM3x x3atom com
compute      COM4x x4atom com
compute      COM5x x5atom com

compute      COMall all com

#Temperature profile
#variable      Tprofile atom 300*(1+(step/5000)*2.5*exp(z/40))
variable      Tprofile atom 300*(1+(step/5000)*2.5*exp(z/75))

# ------------------------- SETTINGS ---------------------------------
thermo          100
thermo_style    custom step lx pxx pyy pzz temp c_COM1x[1] c_COM1x[2] c_COM1x[3] c_COM2x[1] c_COM2x[2] c_COM2x[3] c_COM3x[1] c_COM3x[2] c_COM3x[3] c_COM4x[1] c_COM4x[2] c_COM4x[3]  c_COM5x[1] c_COM5x[2] c_COM5x[3] c_COMall[1] c_COMall[2] c_COMall[3]

timestep       0.002


compute dispall all displace/atom
# ---------------- Run Laser Material Interaction --------------------
#dump          1 all custom 1000 dump/z1dump.atom id type x y z c_dispall[1]  c_dispall[2]  c_dispall[3] c_dispall[4]
#dump          2 all cfg 100 cfg/*.cfg mass type xs ys zs
#dump_modify   2 element Al

#relax for 2 PS
#fix           1 all nvt temp 300.0 300.0 0.1
#run  1000
#unfix         1

fix           1  all nve
fix           3temp  G1  langevin  v_Tprofile  0  0.1  378411   #TEST ALL
run           5000
Neighbor list info ...
  1 neighbor list requests
  update every 1 steps, delay 10 steps, check yes
  max neighbors/atom: 2000, page size: 100000
  master list distance cutoff = 8.365
  ghost atom cutoff = 8.365
  binsize = 4.1825 -> bins = 31 4 77
Memory usage per processor = 0.0706558 Mbytes
Step Lx Pxx Pyy Pzz Temp COM1x[1] COM1x[2] COM1x[3] COM2x[1] COM2x[2] COM2x[3] COM3x[1] COM3x[2] COM3x[3] COM4x[1] COM4x[2] COM4x[3] COM5x[1] COM5x[2] COM5x[3] COMall[1 COMall[2 COMall[3 
       0    129.56615    1229.2466    1206.1035    782.98829    300.18112    2.5297829  -0.91802091   -19.997371   -62.652569   -1.4306768   -20.151628    2.3470804   -1.1537191   -9.8465332   -62.509433   -1.2999676   -10.060415            0            0            0   -1.0122355   -1.0122355   -128.73481 
     100    129.56615    1210.5668    1242.7485    879.43239    302.50753    2.5518629  -0.91514173   -19.964997   -62.664688   -1.3977102   -20.191333    2.3823023   -1.1809057   -9.8310624   -62.500611   -1.2768171   -10.103797            0            0            0   -1.0140239   -1.0122395   -128.73748 
     200    129.56615    1394.2032    1463.0325    888.96064    306.73095    2.5725779  -0.94212794   -19.990059   -62.608953   -1.4054193   -20.171656    2.3914434   -1.1981498   -9.8761898   -62.428374   -1.2990378   -10.072533            0            0            0    -1.017079   -1.0116979   -128.73772 
     300    129.56615    1584.1405    1576.1409    1149.2588    310.54689     2.604933  -0.92863304   -19.977573   -62.625531   -1.4087048   -20.157195    2.4229819    -1.183323   -9.8237737   -62.440797   -1.2861011   -10.086393            0            0            0   -1.0173267   -1.0109556   -128.73587 
     400    129.56615    1805.2143    1779.8879    1354.7004     316.2981    2.5906371   -0.9006245    -20.00113   -62.634016   -1.4451163   -20.134324    2.3992051   -1.1378934   -9.8596863   -62.453213    -1.351126   -10.019383            0            0            0   -1.0199926   -1.0048445   -128.73884 
     500    129.56615    1873.7725    1828.2833    1508.4285    316.66066    2.6203403  -0.89228993   -19.987036   -62.644212   -1.4630731   -20.088193     2.444233   -1.1542236   -9.8680524   -62.495205   -1.3464332   -9.9618116            0            0            0   -1.0210165   -1.0017519   -128.74406 
     600    129.56615    2167.5916    2138.7343    1630.9919    324.29664     2.614247   -0.9357792   -20.021057   -62.610925   -1.4527052   -20.141967    2.4367909    -1.163426   -9.9139734    -62.46941   -1.3213592   -10.053188            0            0            0   -1.0175701   -1.0020562   -128.75024 
     700    129.56615    2448.5812     2418.509    1877.8987     327.3761    2.6202073  -0.94684795   -20.019534   -62.578555   -1.4430822    -20.16879    2.4337254   -1.1671987   -9.8943077   -62.430698   -1.3174561   -10.083426            0            0            0   -1.0134175   -1.0010515   -128.75952 
     800    129.56615    2473.9349    2585.3292    2085.1391    333.92708    2.6118443  -0.94634194   -19.993493   -62.595004    -1.437741   -20.097451    2.4197265   -1.1818865   -9.8530515   -62.463628   -1.3158281    -9.966807            0            0            0   -1.0151263   -0.9987509   -128.76042 
     900    129.56615    2577.7263    2595.6003     2121.514    337.39701     2.614937  -0.96361763   -19.930728   -62.587363   -1.4362708   -20.121154    2.4099722    -1.207009   -9.7647964    -62.45982   -1.2493575   -10.012006            0            0            0   -1.0182207   -1.0010905   -128.76341 
    1000    129.56615    2918.2651    2834.4831    2396.9579    340.76574    2.6117992  -0.91568157   -19.986386   -62.631486   -1.4172219   -20.116743    2.4233442   -1.1732167   -9.8098687    -62.46111   -1.2661886   -10.030532            0            0            0   -1.0173904  -0.99761464    -128.7674 
    1100    129.56615    3108.6831    3096.5908    2512.4977    343.18776    2.5903886   -0.9483827   -19.907581   -62.601146   -1.4012769   -20.097956    2.3986324    -1.177146   -9.7386213   -62.420581   -1.2818818   -9.9874127            0            0            0   -1.0187047  -0.99723684   -128.76677 
    1200    129.56615    3138.5362     3209.434    2632.0994    349.96431     2.571278  -0.92210386   -19.900323   -62.578192   -1.3942667   -20.064747    2.3263879   -1.1375205   -9.7902046   -62.383877   -1.2112412   -9.9432235            0            0            0   -1.0195404  -0.99869062   -128.76851 
    1300    129.56615    3426.9324    3466.2674    2740.4199    353.77573    2.5737353  -0.90206252   -19.944629   -62.530617   -1.4136779   -20.128631    2.3250663   -1.1232794   -9.7762385   -62.336603   -1.2353867    -10.03313            0            0            0   -1.0183111  -0.99248323   -128.77003 
    1400    129.56615    3501.0387    3545.0239    2741.2402    358.44812    2.5895716  -0.85588659   -19.925577   -62.570273    -1.454217   -20.090987    2.3286418   -1.0820086   -9.7660198    -62.41099   -1.2772251   -9.9595985            0            0            0   -1.0111124  -0.99041539   -128.77012 
    1500    129.56615    3730.4514    3630.3442     3081.816    364.86962    2.6430209  -0.80417461   -19.890324   -62.558865   -1.4385025    -20.01956    2.3983241    -1.051144   -9.7755127   -62.401337   -1.2626825   -9.9057564            0            0            0   -1.0085835  -0.98913992   -128.77146 
    1600    129.56615    3792.3703    3864.2475    3055.4965    366.18707    2.6388536  -0.79154898   -19.940003   -62.585673   -1.5042513   -19.985479    2.3830164   -1.0059098   -9.7903984   -62.398144    -1.293381   -9.8642866            0            0            0   -1.0060396  -0.98460022   -128.77297 
    1700    129.56615    4023.7883    3857.2064       3160.8    367.20285    2.6327608   -0.8116266    -19.94226   -62.588466   -1.4231434   -20.039549    2.3971322   -1.0303216    -9.734314   -62.388864   -1.2087002   -9.9191627            0            0            0   -1.0053008  -0.98036362   -128.77666 
    1800    129.56615    4271.8414    4161.4795    3476.3302    377.77464    2.5848954  -0.79389531   -19.908353   -62.559296   -1.3769214    -20.04186    2.3617621  -0.98415744   -9.6604688   -62.380088   -1.1532983   -9.8913346            0            0            0   -1.0094516  -0.97849687   -128.77505 
    1900    129.56615    4092.5888    4084.7952    3213.4406    378.43216    2.5517895  -0.81161667   -19.877618   -62.529065   -1.3670327   -20.007359    2.3499933   -1.0570501   -9.6564184   -62.346305   -1.1528087   -9.8507478            0            0            0    -1.010029  -0.97532349   -128.77476 
    2000    129.56615    4450.5916     4376.289    3318.1857    382.40605     2.587988  -0.78724081   -19.842173   -62.527844   -1.3553047   -19.985593    2.3490115   -1.0624431   -9.5893395   -62.320587   -1.1556119   -9.8175797            0            0            0    -1.009778  -0.97091596   -128.77133 
    2100    129.56615    4587.4832    4597.8536    3403.2623    387.10699    2.6021206  -0.73651837   -19.813906   -62.547839   -1.3502998   -19.951502     2.342496  -0.98378226   -9.5447426   -62.324121   -1.2119976   -9.7786898            0            0            0   -1.0118142   -0.9675642    -128.7695 
    2200    129.56615    4652.5716    4645.8245    3468.4613    391.39316     2.588952  -0.80029136    -19.79766   -62.494868   -1.4252043    -19.94701    2.3158036   -1.0551188    -9.532451   -62.325708   -1.2419639   -9.7540957            0            0            0   -1.0143772  -0.97088201   -128.77355 
    2300    129.56615    4875.2729    4790.5383    3732.9072    396.47664    2.5653398  -0.74278937   -19.767141   -62.501824    -1.400605   -19.933094    2.3051103   -1.0510306   -9.5333764   -62.285921   -1.2159758   -9.6992486            0            0            0   -1.0160435  -0.97306691   -128.77901 
    2400    129.56615    4909.4316    4924.8879    3654.1745    401.77535    2.5987767  -0.80493811    -19.75972   -62.466625   -1.4141709   -19.874346     2.374183   -1.1029188   -9.5288829   -62.288099    -1.244451   -9.6227152            0            0            0   -1.0125216  -0.97384579   -128.78366 
    2500    129.56615    4996.6087    4986.3422    3769.6039    404.87499    2.6734663  -0.80591417   -19.793696   -62.487463    -1.396679   -19.891988     2.425768   -1.0686172   -9.5690849   -62.263994   -1.3004457   -9.7267238            0            0            0   -1.0069361  -0.97114912    -128.7845 
    2600    129.56615    5313.9016    5353.7364    4168.0799    408.43153    2.6556282  -0.83839881   -19.834336   -62.486499   -1.4566202   -19.917936    2.4844784   -1.0913289   -9.5930108   -62.253082   -1.2864827   -9.7147495            0            0            0   -1.0049039  -0.96657158    -128.7884 
    2700    129.56615    5413.6304    5436.8535    4144.2463    408.57586     2.645554  -0.84505989   -19.831634   -62.505652   -1.4364971   -19.902224    2.4556624   -1.1129203   -9.5523274   -62.291962    -1.201899   -9.6962539            0            0            0    -1.009818  -0.96316916   -128.79339 
    2800    129.56615    5546.2224    5518.8244    4105.1167    419.22963    2.7015086  -0.81303272   -19.841617   -62.525411    -1.452677   -19.919038    2.4572892    -1.040741   -9.6111814   -62.307954   -1.2407411   -9.6951858            0            0            0   -1.0102024  -0.96068662    -128.7951 
    2900    129.56615    5754.2271    5810.2149    4445.2827    420.47612    2.6792138  -0.79392103   -19.795348   -62.535097   -1.4468256   -19.852306    2.4244036  -0.99683727   -9.5119104   -62.336995   -1.2478939   -9.6288208            0            0            0   -1.0121815  -0.96132661   -128.79091 
    3000    129.56615    5743.5882    5812.6124    4346.8033    427.64375    2.6330037  -0.75205707   -19.784882   -62.511687   -1.4774697   -19.802385    2.3928191  -0.97368747    -9.528642   -62.347951    -1.307141   -9.6316438            0            0            0    -1.017298  -0.96178718   -128.78916 
    3100    129.56615    6093.0526    5956.3338    4763.6249    429.76335    2.6686877   -0.8009646    -19.85922   -62.538729   -1.4003465    -19.77776     2.454737   -1.0094764   -9.6045779   -62.400973   -1.1743216   -9.5754519            0            0            0   -1.0215795  -0.96542123   -128.78884 
    3200    129.56615    6073.1777    6060.5641    4558.6119     435.9312    2.6411415  -0.77491758   -19.738586   -62.544526   -1.3985783   -19.778814    2.4387278  -0.95398108   -9.4360259   -62.395932   -1.2039002   -9.5763507            0            0            0   -1.0208759  -0.96801481   -128.79125 
    3300    129.56615    6304.6359    6172.3498    4656.5751    438.46629    2.5898551  -0.82785673   -19.693301   -62.551882    -1.382001   -19.818049    2.3648778   -1.0629034   -9.3187062   -62.398791   -1.1865471   -9.6388744            0            0            0   -1.0263438  -0.96721937   -128.79556 
    3400    129.56615     6616.417    6549.7418    4973.9411    446.45231    2.5938618  -0.84486374   -19.738384   -62.573907   -1.3881572   -19.797637    2.3375619   -1.0289111   -9.4167551   -62.427944   -1.2009538   -9.5713298            0            0            0   -1.0314675  -0.97055169   -128.79561 
    3500    129.56615     6709.217    6649.6952    5013.6313    448.40728     2.568608  -0.91926819   -19.682236   -62.561451    -1.365544   -19.737988    2.3372784   -1.1050163   -9.3278834   -62.363485   -1.1851794   -9.4281974            0            0            0    -1.032981   -0.9713909   -128.79777 
    3600    129.56615    6658.1735    6685.8703    5054.8831    450.86237    2.5688958  -0.95456626   -19.660323   -62.583656   -1.3541515   -19.705912    2.3331542   -1.1959245   -9.3168928   -62.356703   -1.1509552   -9.4313015            0            0            0   -1.0369685  -0.97636031   -128.79315 
    3700    129.56615    7011.7304    6938.7673     5350.867    454.67359    2.5617054  -0.94592949   -19.681201    -62.57434   -1.3047058   -19.790861    2.3519607   -1.1766701    -9.316771   -62.392239   -1.0878397   -9.5724925            0            0            0   -1.0400967  -0.97321179   -128.79303 
    3800    129.56615    6980.0798    7015.5435    5463.0793    462.50694    2.5856017  -0.89482358   -19.617677   -62.607427   -1.3122421    -19.77942    2.3734931   -1.1742011   -9.2762092    -62.43803   -1.1362374   -9.5036424            0            0            0   -1.0409618  -0.97028604   -128.79373 
    3900    129.56615    7186.4666    7186.1258    5362.0546    471.18606    2.5533723  -0.83014436   -19.637815   -62.581742   -1.3304317    -19.73968     2.350106   -1.0982798   -9.2982214   -62.403146   -1.1285049   -9.4436079            0            0            0   -1.0408901  -0.96490374   -128.79178 
    4000    129.56615    7054.4626    6993.5149    5467.7096    469.26436    2.5625788  -0.91206406   -19.573207   -62.638766   -1.3048109   -19.738829    2.3962757   -1.2081451   -9.2270026    -62.44345    -1.061618   -9.4802396            0            0            0   -1.0458814  -0.96148497    -128.7921 
    4100    129.56615    7367.5068    7248.8565    5473.4296    471.33603    2.5347134   -0.9048196   -19.583518   -62.680316   -1.3417521   -19.676535    2.3554627   -1.1564703   -9.2428562   -62.516267   -1.1457892   -9.3735725            0            0            0   -1.0535185  -0.95693726   -128.79005 
    4200    129.56615    7726.2267    7711.7528    5892.4684    473.67429    2.5707552  -0.84943872   -19.504394   -62.720886   -1.2512303   -19.677968    2.3814455   -1.0999348   -9.1113803   -62.541986   -1.0613841    -9.392864            0            0            0   -1.0516191  -0.95933739   -128.78582 
    4300    129.56615    7604.3454    7588.1884    5760.6913    482.12987    2.5582835  -0.81350161   -19.485594   -62.703891    -1.234582   -19.687905    2.3128418   -1.0432712    -9.132421   -62.548444  -0.99026044   -9.3832721            0            0            0   -1.0457883  -0.96209663   -128.78201 
    4400    129.56615    7909.5618    7789.8495    5631.1042    485.79118    2.5828574  -0.80192815   -19.499666   -62.696566   -1.2415019   -19.628925    2.3987104   -1.0941498   -9.0634947   -62.578248  -0.91635275   -9.2703909            0            0            0    -1.039941  -0.96035637   -128.78349 
    4500    129.56615    7915.2286     7933.295    5876.4523    492.57056    2.6244449  -0.84608389    -19.42743   -62.687471   -1.2278997   -19.639861    2.4518264    -1.072389   -8.9486313   -62.564188  -0.93674507    -9.264418            0            0            0   -1.0382523  -0.96325287   -128.78505 
    4600    129.56615    8228.6313    8056.0642    5947.3362    497.64562    2.6238424  -0.88625346   -19.418544   -62.708605   -1.2344869   -19.570517    2.4818068   -1.1534499    -9.015928   -62.545001  -0.99436259   -9.1541131            0            0            0   -1.0345864  -0.96260648   -128.78268 
    4700    129.56615    8197.3235    8338.8387    6200.2994    497.40614    2.6360316  -0.89261729   -19.380351   -62.715959   -1.2490475   -19.551548    2.5131038   -1.1052106   -8.9323713   -62.533524  -0.99193814   -9.1178651            0            0            0   -1.0309226  -0.96132423   -128.78537 
    4800    129.56615     8412.465    8374.4558    6318.0672    502.85106    2.6435006  -0.91202937   -19.397939   -62.693669   -1.2213481   -19.539094    2.4728449   -1.1403181   -8.9754084   -62.530544  -0.92707173   -9.0847709            0            0            0    -1.030578  -0.96201764   -128.78578 
    4900    129.56615    8449.9991    8532.1461    6370.2223    508.69443    2.6335648  -0.83748811   -19.268177   -62.668457    -1.283744    -19.63697    2.4283703     -1.01372     -8.83217   -62.514622   -1.0177299   -9.1576708            0            0            0   -1.0286554  -0.96539222   -128.78568 
    5000    129.56615    8308.6704    8275.3216    6268.5494    509.63312    2.6217107  -0.79555493   -19.309037   -62.602915    -1.250834   -19.606241    2.3937678  -0.97787615   -8.8921731   -62.399276   -1.0293799   -9.1995889            0            0            0    -1.029588  -0.96551274   -128.78831 
Loop time of 9.38376 on 512 procs for 5000 steps with 33024 atoms

Performance: 92.074 ns/day, 0.261 hours/ns, 532.835 timesteps/s
99.9% CPU use with 512 MPI tasks x no OpenMP threads

MPI task timing breakdown:
Section |  min time  |  avg time  |  max time  |%varavg| %total
---------------------------------------------------------------
Pair    | 0.0017171  | 3.4997     | 4.5069     |  70.5 | 37.30
Neigh   | 0.00010204 | 0.027742   | 0.037661   |   7.7 |  0.30
Comm    | 0.032595   | 2.8203     | 3.6454     |  60.8 | 30.06
Output  | 0.014756   | 0.073045   | 0.27769    |  33.1 |  0.78
Modify  | 0.025856   | 0.12494    | 0.15869    |  12.5 |  1.33
Other   |            | 2.838      |            |       | 30.24

Nlocal:    64.5 ave 93 max 0 min
Histogram: 67 28 1 0 0 0 4 75 277 60
Nghost:    1110.88 ave 1460 max 0 min
Histogram: 64 0 0 32 0 0 27 5 38 346
Neighs:    4540.85 ave 6759 max 0 min
Histogram: 87 9 0 0 0 0 19 131 219 47

Total # of neighbors = 2324913
Ave neighs/atom = 70.4007
Neighbor list builds = 96
Dangerous builds = 0


variable  com1_x equal "c_COM1x[1]"
variable  com1_y equal "c_COM1x[2]"
variable  com1_z equal "c_COM1x[3]"
variable  com2_x equal "c_COM2x[1]"
variable  com2_y equal "c_COM2x[2]"
variable  com2_z equal "c_COM2x[3]"
variable  com3_x equal "c_COM3x[1]"
variable  com3_y equal "c_COM3x[2]"
variable  com3_z equal "c_COM3x[3]"
variable  com4_x equal "c_COM4x[1]"
variable  com4_y equal "c_COM4x[2]"
variable  com4_z equal "c_COM4x[3]"
variable  com5_x equal "c_COM5x[1]"
variable  com5_y equal "c_COM5x[2]"
variable  com5_z equal "c_COM5x[3]"
variable  comall_x equal "c_COMall[1]"
variable  comall_y equal "c_COMall[2]"
variable  comall_z equal "c_COMall[3]"


fix          2 all print 100 "${com1_x}   ${com1_y}   ${com1_z}  ${com2_x}   ${com2_y}   ${com2_z} ${com3_x}   ${com3_y}   ${com3_z} ${com4_x}   ${com4_y}   ${com4_z} ${com5_x}   ${com5_y}   ${com5_z} ${comall_x}   ${comall_y}   ${comall_z}" file COM.data screen no
#-------------------------- Wave Propagation -------------------------
unfix        3temp
run          1000000
Memory usage per processor = 0.0706558 Mbytes
Step Lx Pxx Pyy Pzz Temp COM1x[1] COM1x[2] COM1x[3] COM2x[1] COM2x[2] COM2x[3] COM3x[1] COM3x[2] COM3x[3] COM4x[1] COM4x[2] COM4x[3] COM5x[1] COM5x[2] COM5x[3] COMall[1 COMall[2 COMall[3 
    5000    129.56615    8308.6704    8275.3216    6268.5494    509.63312    2.6217107  -0.79555493   -19.309037   -62.602915    -1.250834   -19.606241    2.3937678  -0.97787615   -8.8921731   -62.399276   -1.0293799   -9.1995889            0            0            0    -1.029588  -0.96551274   -128.78831 
    5100    129.56615    8190.6305    8088.5239    5990.8024    509.36486    2.6258667  -0.72748183   -19.501052   -62.551333   -1.2747033   -19.556895    2.3998862  -0.97821285   -9.0886375    -62.36938   -1.0342212   -9.1007319            0            0            0   -1.0311288  -0.96702542   -128.79728 
    5200    129.56615    7946.4381    8040.4542    5639.8853    510.75077    2.6052803  -0.66908016   -19.397672   -62.535193   -1.2814453   -19.428987    2.3687639   -0.9536855   -8.9768802   -62.333102   -1.0279704   -8.9762649            0            0            0   -1.0326696   -0.9685381   -128.80626 
    5300    129.56615    7944.7948     7797.054    5373.5328    502.44414    2.5305491   -0.7644737   -19.280118   -62.585366   -1.3490451   -19.333296    2.3150965   -1.0889506   -8.8211714   -62.355039   -1.1294325   -8.8619604            0            0            0   -1.0342104  -0.97005077   -128.81523 
    5400    129.56615    7363.1531    7291.9702    4793.7718    505.96579    2.5636641  -0.76607452   -19.226989   -62.568828   -1.4365284   -19.151686    2.3429951   -1.0832398   -8.8229047   -62.378067   -1.2710276   -8.5912844            0            0            0   -1.0357512  -0.97156345    -128.8242 
    5500    129.56615    6870.3484    6831.8534    3996.0629     505.9635    2.5769944  -0.82181415   -19.018948   -62.612529   -1.4301446   -19.014279    2.3304429   -1.1099692   -8.5284306   -62.398548   -1.2867775   -8.4547733            0            0            0   -1.0372921  -0.97307613   -128.83317 
    5600    129.56615    6585.0099    6458.2437    3294.7133    501.70782    2.5857744  -0.81966351   -18.811547   -62.567612   -1.4378502    -18.78531    2.3529284   -1.0270708   -8.3403636   -62.345063   -1.3573432   -8.2351903            0            0            0   -1.0388329  -0.97458881   -128.84214 
    5700    129.56615    6089.6304    5900.4393    2489.6549    504.99543    2.5703656  -0.80812673   -18.614538   -62.610699   -1.4423049   -18.596427    2.3541153   -1.0662202   -8.0680515   -62.310491   -1.4129947    -8.000486            0            0            0   -1.0403737  -0.97610149   -128.85111 
    5800    129.56615    5729.5614    5701.3128    1957.3078    505.70195    2.5303359  -0.82314802   -18.373207   -62.681515   -1.4564568   -18.498773    2.2077661   -1.0692334   -7.8197435   -62.397542   -1.3920703   -7.8528033            0            0            0   -1.0419145  -0.97761416   -128.86008 
    5900    129.56615    5469.3471    5280.9112    1137.0048    501.48879    2.5255011  -0.80110953    -18.19013   -62.751458   -1.4943399   -18.362535    2.2103937   -1.1033836   -7.5705378   -62.529791    -1.475219   -7.8331212            0            0            0   -1.0434553  -0.97912684   -128.86905 
    6000    129.56615    4938.4621    4981.8402    527.45734     500.7842    2.5434181   -0.8651503   -18.120055   -62.731311   -1.3955469   -18.170252    2.2624579   -1.1779369   -7.4999656    -62.55682   -1.3324036   -7.6529933            0            0            0   -1.0449961  -0.98063952   -128.87802 
    6100    129.56615    4506.8736    4350.1602   -257.46087    500.00063    2.5907933  -0.94357427   -17.977896   -62.741544    -1.379246   -18.064595    2.3781928   -1.1433754   -7.3690717   -62.618268   -1.2388586   -7.5148517            0            0            0   -1.0465369   -0.9821522   -128.88699 
    6200    129.56615    4114.7873    3918.8678   -1153.5931    497.95948    2.5155411  -0.97479873   -17.953829   -62.726458   -1.4050063    -18.04836    2.3553333    -1.172129   -7.3393348   -62.530362   -1.2085497   -7.5346348            0            0            0   -1.0480777  -0.98366488   -128.89596 
    6300    129.56615    3681.5718    3531.1205   -1992.9028    500.15366    2.5255224  -0.92500379   -17.921881   -62.710764   -1.3477611    -18.00462    2.3808704   -1.1242939   -7.3926324   -62.546452   -1.1498729   -7.4925084            0            0            0   -1.0496186  -0.98517755   -128.90493 
    6400    129.56615    3241.1539    3337.1819   -2520.3762    495.66786    2.4707317     -0.93847   -17.874041   -62.768348   -1.3065806     -17.8613    2.2759133   -1.1658462   -7.3404507   -62.605579    -1.103663   -7.3097905            0            0            0   -1.0511594  -0.98669023    -128.9139 
    6500    129.56615    2949.6472    2917.6138   -3295.3663    495.99548    2.4681356  -0.91624583   -17.775317   -62.768008   -1.2715595   -17.787557    2.2472622   -1.0902244   -7.1246138   -62.588031   -1.0308797   -7.1179051            0            0            0   -1.0527002  -0.98820291   -128.92287 
    6600    129.56615     2399.297    2192.4974   -4098.5296     496.8439    2.4346694  -0.90992936   -17.758377   -62.741197   -1.3129839   -17.816686    2.1333182   -1.1821158   -7.2302149   -62.575995   -1.0834388    -7.262535            0            0            0    -1.054241  -0.98971559   -128.93184 
    6700    129.56615    2216.7373    1962.6547   -4714.3808    494.45049    2.3841622  -0.93198771   -17.805953    -62.75748   -1.2647594   -17.815396    2.0404344   -1.1899065   -7.3083892   -62.573547  -0.96768501   -7.3506136            0            0            0   -1.0557818  -0.99122827   -128.94081 
    6800    129.56615      1687.26    1539.1986   -5320.7169    495.76747    2.3774162  -0.95666092   -17.718117   -62.764159   -1.3435929   -17.825531    2.0890489    -1.182059   -7.1932151   -62.579664   -1.0546292   -7.3806521            0            0            0   -1.0573226  -0.99274094   -128.94979 
    6900    129.56615    1646.6647    1215.8402   -5884.6701     495.6121    2.3993441  -0.98869797     -17.6095   -62.785389   -1.2137879    -17.86916    2.1040277   -1.1830679   -7.0923647   -62.580437  -0.94332493   -7.3598105            0            0            0   -1.0588634  -0.99425362   -128.95876 
    7000    129.56615     1345.808     1336.563   -6057.5009    491.90931    2.4183239  -0.94174166     -17.5635   -62.746688   -1.3127383   -17.888549    2.1151736   -1.0665333   -7.0167428   -62.526403   -1.1003526   -7.4131816            0            0            0   -1.0604042   -0.9957663   -128.96773 
    7100    129.56615    1129.3475    1217.7942   -6152.4068    490.65085    2.4094188  -0.91212917   -17.580276   -62.740871   -1.3545707   -17.871228    2.1121197    -1.059985   -7.0341406   -62.527281   -1.1796232   -7.3795103            0            0            0   -1.0619451  -0.99727898    -128.9767 
    7200    129.56615    1154.9259    1021.7777   -6172.4406    491.79433     2.456019  -0.95088625   -17.525449   -62.730067   -1.4259734   -17.799251    2.2000132   -1.1247695    -6.984626    -62.50362   -1.3075184   -7.2493557            0            0            0   -1.0634859  -0.99879165   -128.98567 
    7300    129.56615    1211.3696    1412.2637    -6205.045    493.21313    2.4193206  -0.96232802   -17.494143   -62.731875   -1.4396212   -17.714504    2.1721973   -1.0605212   -6.9357976   -62.473945   -1.2935516   -7.0798234            0            0            0   -1.0650267   -1.0003043   -128.99464 
    7400    129.56615    1589.6302    1619.3369   -5602.4789    493.73071    2.4825299  -0.93985589   -17.451274   -62.735882   -1.3997863   -17.696128    2.2671759   -1.1090545   -6.9032105   -62.518627   -1.1430461   -7.0459046            0            0            0   -1.0665675    -1.001817   -129.00361 
    7500    129.56615    1829.7502    1788.4567   -5148.2215    494.71878    2.4461996  -0.83476756   -17.450286   -62.746675   -1.4571366   -17.731458     2.246379   -1.0665584   -6.9638798   -62.581346   -1.2576739   -7.1609861            0            0            0   -1.0681083   -1.0033297   -129.01258 
    7600    129.56615    2171.2066    2020.4849     -4645.67    493.57203    2.4549407  -0.82907747   -17.587566   -62.778274   -1.5199203   -17.766246    2.2411886   -1.0387485   -7.1293371   -62.638085   -1.3520202   -7.2656162            0            0            0   -1.0696491   -1.0048424   -129.02155 
    7700    129.56615    2539.8764    2455.9292   -3840.3008    495.82913    2.5083267  -0.78315174   -17.726697      -62.779   -1.4382344   -17.880425    2.3502659   -1.0360224   -7.1461537   -62.579165   -1.2038787   -7.3077163            0            0            0   -1.0711899    -1.006355   -129.03052 
    7800    129.56615     2877.815    2854.9659   -3250.0479    498.64353    2.5366477  -0.71426209   -17.784534   -62.839847   -1.4791843   -17.990503    2.3780532   -1.0067594   -7.2027492   -62.605842   -1.2272836   -7.4917841            0            0            0   -1.0727307   -1.0078677   -129.03949 
    7900    129.56615    3523.2367    3346.5537   -2311.1414    496.77576    2.5644775  -0.72378881   -17.850606   -62.776205   -1.5288631   -18.083296    2.4128357   -1.0865108   -7.3703477   -62.486831   -1.2648854   -7.6074926            0            0            0   -1.0742716   -1.0093804   -129.04846 
    8000    129.56615    3844.7193    3820.2165   -1529.8356    498.10663    2.5014421  -0.81497007   -18.003339   -62.782206   -1.4238862    -18.24987    2.3590035   -1.1009346   -7.5100293   -62.523072   -1.1648381   -7.7439159            0            0            0   -1.0758124   -1.0108931   -129.05743 
    8100    129.56615    4246.1834    4227.0217   -823.31312     499.9818    2.4744708  -0.87159689   -18.080537   -62.759393   -1.4280589    -18.40841    2.3024824   -1.1066941   -7.4947002    -62.47531   -1.1906365   -8.0059245            0            0            0   -1.0773532   -1.0124058    -129.0664 
    8200    129.56615    4603.2961    4554.3293   -26.715515    502.58466     2.529122  -0.91217938   -18.277121   -62.715494   -1.4350647   -18.530882    2.4236365   -1.2361536   -7.7887919   -62.436322   -1.2771382   -8.1175421            0            0            0    -1.078894   -1.0139184   -129.07537 
    8300    129.56615    5077.5204     4940.994    664.72558    501.88367    2.5158474   -1.0024925   -18.477617   -62.687748   -1.4188694   -18.636305    2.3616023   -1.2951148   -7.9913022   -62.485502   -1.3453117   -8.1583171            0            0            0   -1.0804348   -1.0154311   -129.08434 
    8400    129.56615    5296.5453    5410.8494    1495.9392    503.19427    2.5252441   -1.1096385   -18.680515   -62.661272   -1.3941576   -18.706831    2.2868923   -1.3804584   -8.1406269   -62.467707   -1.3712791   -8.2623377            0            0            0   -1.0819756   -1.0169438   -129.09332 
    8500    129.56615    6221.3139    6181.6409    2445.4658    499.86654     2.493585   -1.1414409   -18.837266   -62.621339   -1.4106934   -18.744401    2.2009959   -1.4158159   -8.4123724   -62.357824   -1.3672509   -8.2290544            0            0            0   -1.0835164   -1.0184565   -129.10229 
    8600    129.56615    6302.4205    6247.3244    2754.8933    504.37343    2.4164807   -1.1618136   -18.925328   -62.676413   -1.4326608    -18.78051      2.10288   -1.3995181   -8.5233466   -62.415972   -1.3184388   -8.2598241            0            0            0   -1.0850572   -1.0199691   -129.11126 
    8700    129.56615    6841.2691    6766.6272    3467.8519     504.9389    2.5392726   -1.1982312   -19.075955   -62.705268   -1.3461755   -18.903977     2.245897   -1.4424954   -8.6070368   -62.468724   -1.1512604   -8.3975036            0            0            0   -1.0865981   -1.0214818   -129.12023 
    8800    129.56615    7301.1873    7252.2334    4107.1998     504.4774      2.52513   -1.1366448   -19.278956   -62.709588   -1.3199724   -19.101233    2.2338894   -1.2988452   -8.7705259   -62.534849   -1.1148737   -8.4631803            0            0            0   -1.0881389   -1.0229945    -129.1292 
    8900    129.56615    7450.8491    7396.9658    4698.0722     509.9235    2.4962323   -1.0990677   -19.470502   -62.681384   -1.2481704   -19.277009      2.15959   -1.2513495   -8.9641603   -62.536611   -1.0481156   -8.7052823            0            0            0   -1.0896797   -1.0245072   -129.13817 
    9000    129.56615    7843.4335    7789.7658    5024.9868    509.71483    2.4988182   -1.0937206   -19.562457    -62.62971   -1.2592486   -19.442372    2.1555812   -1.3286899   -9.1334033    -62.51438   -1.0208652   -8.9633859            0            0            0   -1.0912205   -1.0260199   -129.14714 
    9100    129.56615    8039.0639    8014.3268    5836.6931    509.77502    2.5064882   -1.0084674   -19.684444   -62.722545   -1.2776028   -19.566536    2.2371677   -1.2060907   -9.2441182   -62.601827  -0.99267861    -9.168102            0            0            0   -1.0927613   -1.0275325   -129.15611 
    9200    129.56615    8368.3604    8327.1678    5910.4143    511.77595    2.5617114  -0.99704454   -19.630708    -62.71285   -1.2736923   -19.654292    2.3541208   -1.2665728   -9.3089483   -62.572661   -1.0620962   -9.3521451            0            0            0   -1.0943021   -1.0290452   -129.16508 
    9300    129.56615    8499.2314    8598.0123    6101.0851     511.8677    2.5217885    -0.986282   -19.734812   -62.753223   -1.2487723   -19.770153    2.3162148   -1.3105426   -9.4142396   -62.595144   -1.0304811   -9.4338475            0            0            0   -1.0958429   -1.0305579   -129.17405 
    9400    129.56615    8606.0174    8442.7813    6018.5466      513.238    2.5355787  -0.92708711   -19.790097   -62.804866   -1.3705379   -19.830399    2.2947976   -1.2796224   -9.4438935   -62.640931    -1.142253   -9.4600857            0            0            0   -1.0973837   -1.0320706   -129.18302 
    9500    129.56615    8111.0329    8365.0927    5903.0911    511.28237    2.5406197  -0.94270703   -19.823827   -62.818902   -1.3786886   -19.845047    2.3002606   -1.1900537   -9.4236669   -62.594385   -1.2052955   -9.3887731            0            0            0   -1.0989246   -1.0335832   -129.19199 
    9600    129.56615    8167.0957     7984.802    5456.5587    509.94096    2.4770317  -0.91015616   -19.662751   -62.760428   -1.4803083   -19.724299    2.2409185   -1.2032239   -9.2523058   -62.536129   -1.2157695   -9.3383446            0            0            0   -1.1004654   -1.0350959   -129.20096 
    9700    129.56615    7599.7893    7494.4787     4874.034    510.62267    2.4958914  -0.80675339   -19.533043   -62.724225   -1.4733698   -19.640591    2.2015179   -1.0756392   -9.0987834   -62.510276   -1.2313236   -9.2310357            0            0            0   -1.1020062   -1.0366086   -129.20993 
    9800    129.56615    7480.0492    7496.0369    4443.5464    509.30266    2.4939746  -0.84338405   -19.391478   -62.682295    -1.497344   -19.549274    2.2353735  -0.97070308   -8.9292726    -62.45992    -1.234419   -9.1935328            0            0            0    -1.103547   -1.0381213    -129.2189 
    9900    129.56615    7008.0639    6870.7767    3517.1121    506.89923    2.4924155  -0.79770761   -19.178044   -62.682094   -1.4438119   -19.397339    2.2717068  -0.84274811   -8.7472852   -62.456701   -1.1772146   -8.9816525            0            0            0   -1.1050878    -1.039634   -129.22787 
   10000    129.56615    6477.4437    6643.9752    2907.9659    505.44994    2.4935786  -0.77158546    -18.96865   -62.586069   -1.4375647   -19.280758    2.2688329  -0.78599842   -8.4174791   -62.362815   -1.2430862   -8.7926664            0            0            0   -1.1066286   -1.0411466   -129.23685 
   10100    129.56615    6179.5289    5974.3497    2064.7711     505.9331     2.568027  -0.74471435   -18.810922   -62.563298   -1.4332602   -19.134724    2.3674921  -0.81083069   -8.2146851   -62.329302   -1.2457379   -8.6276058            0            0            0   -1.1081694   -1.0426593   -129.24582 
   10200    129.56615    5580.6455    5507.4767      1421.58    508.53165    2.6161275  -0.82255158   -18.622327   -62.562314   -1.4839526   -19.019821    2.4450757   -1.0423132   -8.1157408    -62.36417   -1.2980932   -8.5917689            0            0            0   -1.1097102    -1.044172   -129.25479 
   10300    129.56615    5235.3639    5374.3091     589.6398    504.34325     2.666517  -0.88510645    -18.41081   -62.640598    -1.458716   -18.840466    2.4922808   -1.1001616   -7.8652241   -62.489868   -1.2638648   -8.3722294            0            0            0   -1.1112511   -1.0456847   -129.26376 
   10400    129.56615    4995.7474    4910.9945   -144.58537     503.4616    2.6153417  -0.87818794   -18.312753   -62.619032   -1.4197424   -18.625687    2.4373651   -1.0976921   -7.7389198   -62.459723   -1.1808235    -8.287415            0            0            0   -1.1127919   -1.0471973   -129.27273 
   10500    129.56615    4447.0839    4393.2942   -811.17499    502.07337    2.7083587  -0.96903339   -18.252509   -62.585513   -1.4984627   -18.481415    2.4669233   -1.2155782   -7.7054058   -62.491601    -1.225469   -8.1729167            0            0            0   -1.1143327     -1.04871    -129.2817 
   10600    129.56615    4038.4106    3955.9863   -1555.9818    501.12325    2.7560187  -0.97319794   -18.278455    -62.66874    -1.484352   -18.378007    2.6073469   -1.2317044   -7.6969337    -62.55801   -1.2209606   -7.8449765            0            0            0   -1.1158735   -1.0502227   -129.29067 
   10700    129.56615    3655.3979    3621.9032   -2042.7509    499.05673    2.7409694   -1.0550185   -18.152203   -62.666297   -1.4295997   -18.340061    2.4735182   -1.2457214   -7.6174276   -62.523434   -1.2703299   -7.8042917            0            0            0   -1.1174143   -1.0517354   -129.29964 
   10800    129.56615    3227.2632    3170.0496     -2630.24    498.50769    2.7333539   -1.0741813   -18.087022   -62.696525   -1.4095721   -18.289274    2.5054704   -1.3452725    -7.519091   -62.524223   -1.1889231   -7.7297234            0            0            0   -1.1189551   -1.0532481   -129.30861 
   10900    129.56615    2986.5492    2780.6336   -3537.4295    497.07431    2.7195358   -1.1434985   -18.023915   -62.718954   -1.3531905   -18.250933    2.4954061   -1.3565297   -7.5156795   -62.548668   -1.1161656   -7.7853685            0            0            0   -1.1204959   -1.0547607   -129.31758 
   11000    129.56615    2485.6648    2254.9463   -4189.1608    498.64867    2.7112138   -1.0772164   -18.054217   -62.625473   -1.3389503   -18.217102    2.5136201   -1.3407603   -7.5919775   -62.449865   -1.1732588   -7.7580923            0            0            0   -1.1220367   -1.0562734   -129.32655 
   11100    129.56615     2236.906    2087.7462   -4985.0283    497.73076    2.6622403   -1.1307344   -18.042724   -62.576934   -1.2431956   -18.096407    2.4370483   -1.3936814   -7.6024261   -62.352323   -1.1370307    -7.580204            0            0            0   -1.1235776   -1.0577861   -129.33552 
   11200    129.56615    1826.4535    1979.0466    -5482.613    495.37014    2.6837718   -1.1675784   -18.151701   -62.545426   -1.3533488    -18.11827    2.4886278   -1.4068743   -7.7132214   -62.325436   -1.2996074   -7.6605213            0            0            0   -1.1251184   -1.0592988   -129.34449 
   11300    129.56615    1726.4262    1631.6675   -5685.3156     495.7057    2.6594181   -1.0907615   -18.199093   -62.520684   -1.4651784   -18.043526    2.4273034   -1.3748667   -7.7702366   -62.291228   -1.3651292   -7.5647528            0            0            0   -1.1266592   -1.0608114   -129.35346 
   11400    129.56615    1425.3025    1483.1155   -6154.7327    494.75753    2.5918863   -1.1891257   -18.096863   -62.536326   -1.5522908   -17.992414    2.4052623    -1.530496   -7.6562873   -62.352257   -1.3654807   -7.5059522            0            0            0      -1.1282   -1.0623241   -129.36243 
   11500    129.56615    1434.2087    1394.6948     -6037.33    495.10367    2.5975229   -1.1562698   -18.121573   -62.515433   -1.5660008   -17.999489    2.3720955    -1.420308    -7.577081   -62.387786   -1.3781354   -7.4776988            0            0            0   -1.1297408   -1.0638368    -129.3714 
   11600    129.56615    1407.1228     1399.972   -6125.1768    497.07388    2.6446846   -1.1287191   -18.073335   -62.545935   -1.5721361   -18.000232    2.4012593   -1.4137284   -7.6004968   -62.396396   -1.3713719   -7.4763653            0            0            0   -1.1312816   -1.0653495   -129.38038 
   11700    129.56615    1650.2514    1421.3855   -5695.6014    496.23916    2.6104995   -1.1138148   -18.156163   -62.563757   -1.5639191   -17.967647    2.4011377   -1.4312932    -7.751802   -62.403863   -1.2819294    -7.472065            0            0            0   -1.1328224   -1.0668622   -129.38935 
   11800    129.56615    1838.5413    1771.8963   -5486.0821    495.03715    2.6118329   -1.0241044   -18.108939   -62.584469    -1.537801    -18.02488    2.3879949   -1.3541739    -7.691715      -62.384   -1.2783591   -7.5044299            0            0            0   -1.1343632   -1.0683748   -129.39832 
   11900    129.56615    2045.0699    2066.8288   -4878.7466    498.32989    2.7141474  -0.98970124   -18.122864   -62.551684   -1.6096212   -18.119211    2.5140959   -1.2065273   -7.6220907   -62.338397   -1.4183568   -7.6263463            0            0            0   -1.1359041   -1.0698875   -129.40729 
   12000    129.56615    2431.7407    2506.0571   -4442.1265    496.96544    2.7113134  -0.93838949   -18.160121   -62.573093    -1.628766   -18.279201    2.5169497   -1.2011858   -7.6258637   -62.426875   -1.5652262    -7.864582            0            0            0   -1.1374449   -1.0714002   -129.41626 
   12100    129.56615    2792.7488    2742.6466   -3617.3528    500.28231    2.7029838  -0.98205293   -18.165759   -62.597827    -1.620385    -18.37584    2.5039513   -1.1937471   -7.6606829   -62.375685   -1.5115412    -8.033244            0            0            0   -1.1389857   -1.0729129   -129.42523 
   12200    129.56615    3388.9344    3299.0385   -2765.7967    501.54549    2.6772934  -0.96508763   -18.246314   -62.626696   -1.5404405   -18.418922     2.478824   -1.1681661   -7.7842703   -62.428696   -1.3450779    -7.938813            0            0            0   -1.1405265   -1.0744255    -129.4342 
   12300    129.56615    3882.1277    4028.9707   -1657.5023    497.25607    2.7185463  -0.99029854   -18.403131   -62.677636   -1.5672064   -18.584027    2.5214035   -1.1898402   -7.9118496     -62.4986   -1.3975241   -8.1188248            0            0            0   -1.1420673   -1.0759382   -129.44317 
   12400    129.56615    4420.3878    4473.8266   -931.57775    501.60572    2.7287871  -0.98743507   -18.454299   -62.684009   -1.5382433   -18.708373    2.5503606   -1.1782053   -7.8983514   -62.479885   -1.3472918   -8.3104116            0            0            0   -1.1436081   -1.0774509   -129.45214 
   12500    129.56615    4873.7554    4709.9691   -230.57926    501.87157    2.7075592  -0.98213559   -18.588801   -62.588117   -1.5435268   -18.789467    2.5281206   -1.2289567   -8.1207896   -62.375007   -1.3418478    -8.362889            0            0            0   -1.1451489   -1.0789636   -129.46111 
   12600    129.56615    5117.9505    5067.4926    285.01431    503.43723    2.7270481    -1.031998   -18.759337   -62.662661   -1.5304168   -18.996728    2.5299607   -1.3255239   -8.3194868   -62.445714   -1.2670221   -8.5139167            0            0            0   -1.1466897   -1.0804763   -129.47008 
   12700    129.56615    5613.9041    5572.6065    1060.9744    504.18079    2.6462858   -1.0044299   -18.788692    -62.69159   -1.4959203   -19.119305    2.4684216   -1.2209274   -8.3366028   -62.513203   -1.2638831   -8.6791981            0            0            0   -1.1482306   -1.0819889   -129.47905 
   12800    129.56615    5914.3366    5804.0185    1632.2029     506.9726    2.5918092   -1.0209586   -18.975556   -62.651184   -1.4017512   -19.187592    2.4189698   -1.2370694   -8.5034544    -62.54434   -1.1728626   -8.7533015            0            0            0   -1.1497714   -1.0835016   -129.48802 
   12900    129.56615    6272.1139    6278.2809    2229.8075    508.65105    2.5446761   -1.0411004   -19.101767   -62.619437   -1.3523064   -19.280363    2.3365662   -1.3280203   -8.6549022   -62.463338   -1.1483463   -8.8637745            0            0            0   -1.1513122   -1.0850143   -129.49699 
   13000    129.56615    6756.2115    6664.4667     3152.965    508.03622     2.603093   -1.0154122   -19.191126   -62.632054   -1.2105331   -19.490276    2.4663964   -1.3240292    -8.735995   -62.447982  -0.98279856   -9.0679715            0            0            0    -1.152853    -1.086527   -129.50596 
   13100    129.56615     7049.876     6820.823    3449.4419    511.66712    2.6533439   -1.0951136   -19.323923   -62.626275   -1.2083196   -19.715165    2.4347305   -1.4340192   -8.9012517   -62.404475  -0.98796498    -9.189927            0            0            0   -1.1543938   -1.0880397   -129.51493 
   13200    129.56615    7485.8145    7292.0453    4283.8097    510.48421    2.5882475   -1.0144603   -19.465622   -62.643704   -1.3022022   -19.787224    2.3623889   -1.2836956   -8.9781807   -62.453867   -1.0622215   -9.3599692            0            0            0   -1.1559346   -1.0895523   -129.52391 
   13300    129.56615    7829.7287    7773.0657    4809.3021    511.39829    2.5781498   -1.0317016    -19.63867   -62.655786   -1.3453462   -19.839199    2.3420879   -1.2707823   -9.1550933   -62.536387   -1.1632393   -9.4275933            0            0            0   -1.1574754    -1.091065   -129.53288 
   13400    129.56615    8046.7502    8071.1252    5356.1898    512.00996    2.5616817  -0.99441036   -19.915744   -62.659405   -1.2874718   -19.924233    2.2729274   -1.1772777   -9.4522038   -62.547604   -1.1006368   -9.5067821            0            0            0   -1.1590162   -1.0925777   -129.54185 
   13500    129.56615    8189.1331    8272.5121    5479.9793    514.03548    2.5772996   -1.0892186   -20.025561   -62.629248    -1.371844     -20.0432    2.2866562   -1.2386052   -9.6053183   -62.475989   -1.2367946   -9.5926568            0            0            0   -1.1605571   -1.0940904   -129.55082 
   13600    129.56615    8768.9594    8439.9865    5964.8652    513.43657    2.6138475    -1.017468   -20.171099    -62.63342   -1.3581495   -20.123211    2.3633896   -1.2139401   -9.7925553   -62.520973   -1.1336416   -9.7343976            0            0            0   -1.1620979    -1.095603   -129.55979 
   13700    129.56615    8790.3513    8571.1201    5974.5867    513.86494    2.5494275  -0.94143553   -20.224823   -62.714831   -1.3984235   -20.105763    2.3484616   -1.1932424   -9.9170886   -62.562154   -1.1415128   -9.7528615            0            0            0   -1.1636387   -1.0971157   -129.56876 
   13800    129.56615    8531.6562    8245.0069    5837.3422    515.58879    2.5996948  -0.89175502   -20.177974   -62.729788   -1.3585047   -20.196992    2.3732501   -1.1303156   -9.9443277   -62.544303   -1.0920393   -9.9414763            0            0            0   -1.1651795   -1.0986284   -129.57773 
   13900    129.56615    8460.9934    8284.5408    5843.4655    508.54863    2.5957648  -0.85146354   -20.215396   -62.782081   -1.3878956   -20.123562    2.3826983   -1.1021689   -9.9737775   -62.570946   -1.1210199     -9.80074            0            0            0   -1.1667203   -1.1001411    -129.5867 
   14000    129.56615    8067.5385    8042.7712    5254.9279    514.56081    2.5920184  -0.85021869   -20.110149   -62.784151   -1.3860206   -20.071087     2.446516   -1.0374421   -9.8020996   -62.555377   -1.0704081   -9.7130976            0            0            0   -1.1682611   -1.1016538   -129.59567 
   14100    129.56615    7620.1359    7708.4957     4662.312    510.79448     2.576134  -0.76878989   -19.852838   -62.756831    -1.367162    -19.90516    2.3710895  -0.93703466   -9.4658193   -62.573458   -1.0400405   -9.5423366            0            0            0   -1.1698019   -1.1031664   -129.60464 
   14200    129.56615     7222.329    7312.1048    3960.6955    511.50409    2.5057841  -0.75187432   -19.764082   -62.707996   -1.4142973   -19.781226    2.2956778  -0.85279419   -9.2717226   -62.553826   -1.0399156   -9.4390146            0            0            0   -1.1713427   -1.1046791   -129.61361 
   14300    129.56615    6896.5619    6855.7747      3367.56    505.89908    2.4983508  -0.84516424   -19.667431   -62.701033   -1.4847473   -19.624598    2.3159052  -0.95375011   -9.1507162   -62.500421   -1.1534827   -9.1521927            0            0            0   -1.1728836   -1.1061918   -129.62258 
   14400    129.56615    6395.6452    6241.5097    2296.6423    507.19348    2.4641238  -0.84833132   -19.372056   -62.694146    -1.516341   -19.390886    2.2705021   -1.0528833   -8.8667355   -62.456617   -1.2660723   -8.9017642            0            0            0   -1.1744244   -1.1077045   -129.63155 
   14500    129.56615    5910.8276    5958.2524    1789.5809    505.94248    2.4689568    -0.854281    -19.21601   -62.709975   -1.5554149   -19.269822    2.2571357   -1.1193206   -8.7675667   -62.463138   -1.3039948   -8.7465057            0            0            0   -1.1759652   -1.1092171   -129.64052 
   14600    129.56615    5542.1156    5359.4015    821.07985    506.35674    2.4637998  -0.95000834   -19.154223   -62.677056   -1.5135776   -19.140225     2.248382    -1.196799   -8.6671381   -62.409957   -1.3424485   -8.6753307            0            0            0    -1.177506   -1.1107298   -129.64949 
   14700    129.56615    5085.8074    5067.5353    302.01145     506.8387    2.4300349   -1.0129106   -18.989985   -62.734615   -1.4619013    -19.01108    2.2419895   -1.2785359   -8.5224111   -62.496556   -1.3201339   -8.5153034            0            0            0   -1.1790468   -1.1122425   -129.65846 
   14800    129.56615     4834.102    4767.0415   -399.97479    501.46424    2.4626522   -1.1475868   -18.787633   -62.765249   -1.4382049    -18.94091    2.2792632   -1.4169908   -8.3458116   -62.539301   -1.3632479   -8.5656617            0            0            0   -1.1805876   -1.1137552   -129.66744 
   14900    129.56615    4276.6159    4346.6585   -1073.4758    503.53362    2.4454771   -1.1526555   -18.687001   -62.809791    -1.405588    -18.84145    2.2350432   -1.3600192   -8.3000315   -62.617499   -1.3361624   -8.4794164            0            0            0   -1.1821284   -1.1152679   -129.67641 
   15000    129.56615    3925.1771    4106.0522   -1756.7246    500.08533    2.4185264   -1.1400997   -18.608734   -62.877078   -1.4004489   -18.812207    2.2909551   -1.3493616   -8.2360086   -62.708169   -1.3068999   -8.4443008            0            0            0   -1.1836692   -1.1167805   -129.68538 
   15100    129.56615    3648.8717    3718.3829   -2371.5574    500.72455    2.4750993   -1.1269586   -18.596876    -62.84934   -1.3759325   -18.737817    2.3500491     -1.35112   -8.1431554   -62.658713    -1.220589   -8.3073722            0            0            0   -1.1852101   -1.1182932   -129.69435 
   15200    129.56615    3116.5776    3173.4095   -3093.0509     500.2195    2.4091921   -1.1875255    -18.56345   -62.926413   -1.3845908   -18.747633    2.2524964   -1.4523924   -8.0592205   -62.750336   -1.1576651   -8.2954909            0            0            0   -1.1867509   -1.1198059   -129.70332 
   15300    129.56615    2572.4438    2625.8994   -3890.6434     502.3796    2.3866694   -1.1902483   -18.518811   -62.949823   -1.4277914   -18.711684    2.2163477   -1.4590479    -8.040159   -62.761371   -1.1823162   -8.2308593            0            0            0   -1.1882917   -1.1213186   -129.71229 
   15400    129.56615    2564.2473    2469.0302   -4351.7552     497.7438    2.3931354   -1.1561916   -18.477055   -62.954527   -1.5006996   -18.608796    2.1997945    -1.456611   -8.0028452    -62.79554   -1.2860081   -8.1431506            0            0            0   -1.1898325   -1.1228312   -129.72126 
   15500    129.56615    2355.5858     2360.756   -4750.0141     493.6836    2.3710055   -1.0774994   -18.416097   -62.960173   -1.5135907   -18.580584    2.1856667   -1.4882937   -7.9523398   -62.853366   -1.3426336   -8.1271426            0            0            0   -1.1913733   -1.1243439   -129.73023 
   15600    129.56615    2052.8938    1982.6099    -5246.729    497.92654    2.3390713   -1.0292773   -18.374207   -62.921101   -1.5292337   -18.457676    2.1041529   -1.4200888   -7.9900498   -62.709898   -1.3176558   -8.0316942            0            0            0   -1.1929141   -1.1258566    -129.7392 
   15700    129.56615    1955.2623    1921.8394   -5531.0691    493.62279    2.3368055   -1.0368214   -18.293875   -62.984006   -1.5685222   -18.459979    2.0477076   -1.3783214   -7.8508144   -62.808321   -1.3123341   -8.0246764            0            0            0   -1.1944549   -1.1273693   -129.74817 
   15800    129.56615     1608.996    1548.5788    -5816.113    495.10385    2.2460394    -1.107441   -18.341059   -62.952331   -1.5847308   -18.501142    1.9584697   -1.3103623   -7.8947198   -62.814867   -1.3529621   -8.0328946            0            0            0   -1.1959957    -1.128882   -129.75714 
   15900    129.56615    1539.6693    1508.2741   -6178.4486    497.65418    2.2514742  -0.99192815   -18.299946     -62.9569   -1.5751838    -18.60897    1.9551285   -1.2089255   -7.8746853   -62.821911   -1.3116596    -8.189112            0            0            0   -1.1975365   -1.1303946   -129.76611 
   16000    129.56615    1780.6973    1658.6358   -5773.5734    494.91293    2.2712436  -0.98429177   -18.437998   -62.941379   -1.5781645   -18.571827    1.9489211   -1.2119805   -8.0530206   -62.786843   -1.3670313   -8.1986964            0            0            0   -1.1990774   -1.1319073   -129.77508 
   16100    129.56615     1857.921    1771.7762   -5642.6197    497.06258    2.2847149  -0.89933666   -18.475479   -62.944735   -1.5365042   -18.556791    1.9653579    -1.074762   -8.0629033   -62.784388   -1.3784917   -8.0997618            0            0            0   -1.2006182     -1.13342   -129.78405 
   16200    129.56615    1946.1079    2072.6503   -5197.0264    498.26824    2.2642833  -0.95034243   -18.540633   -62.899528   -1.5667786   -18.564652     1.975399   -1.0977501   -8.1602226   -62.725479   -1.3516319   -8.1499387            0            0            0    -1.202159   -1.1349327   -129.79302 
   16300    129.56615    2318.9191    2292.5472   -4679.7151    498.38532    2.3021616  -0.98836567   -18.661274   -62.959455   -1.6245341   -18.627166    2.0360657   -1.1158119   -8.1798998   -62.802432   -1.3799917   -8.2060951            0            0            0   -1.2036998   -1.1364453   -129.80199 
   16400    129.56615    2630.2541    2515.8719   -4238.6489    502.90118      2.27262  -0.96203498   -18.724623    -62.99883    -1.607503   -18.712015    2.0080889   -1.1612345   -8.2747359   -62.878315   -1.3441529   -8.2564326            0            0            0   -1.2052406    -1.137958   -129.81097 
   16500    129.56615    3234.3266    3097.6746   -3235.8096    499.40014    2.3443684   -1.0410432   -18.791658   -62.960083   -1.5889184    -18.80036    2.1266174   -1.3275831   -8.3759062   -62.823862   -1.4102204   -8.2945628            0            0            0   -1.2067814   -1.1394707   -129.81994 
   16600    129.56615    3469.6684    3335.1286   -2598.7303    505.86529    2.3600592   -1.0338718   -18.879113   -62.956666   -1.5771426   -18.880691    2.1208802   -1.2477871   -8.4782824   -62.792292   -1.3250637   -8.4316204            0            0            0   -1.2083222   -1.1409834   -129.82891 
   16700    129.56615    4172.8198    4009.7075    -1537.435    501.80162    2.3874895   -1.1039959   -18.924021   -62.952256   -1.6167689   -19.007546    2.1744759   -1.2448508   -8.5284104   -62.758255   -1.3549332   -8.6224336            0            0            0    -1.209863   -1.1424961   -129.83788 
   16800    129.56615    4663.4807    4606.7607   -721.77402    501.97223    2.4016025   -1.2163204   -18.962664   -62.936951   -1.5939235    -19.07037    2.2839768   -1.3839062   -8.5465387   -62.720761   -1.3661967     -8.65128            0            0            0   -1.2114039   -1.1440087   -129.84685 
   16900    129.56615     4811.077    4806.9824   -144.07641     505.0953    2.3627913   -1.2415134    -19.09091   -62.958092   -1.5304164   -19.162134    2.1862606    -1.419278   -8.6487415   -62.697169   -1.2709578   -8.7140128            0            0            0   -1.2129447   -1.1455214   -129.85582 
   17000    129.56615    5273.2937    5307.9853    722.13755    503.98716    2.3674633   -1.2109193   -19.195886   -62.938843   -1.4203973   -19.267231    2.1474024   -1.4120654   -8.7021597   -62.698558   -1.2901537   -8.8482316            0            0            0   -1.2144855   -1.1470341   -129.86479 
   17100    129.56615    5633.3934     5966.885    1366.3741     507.8717     2.348754   -1.2317203   -19.289828    -62.87049   -1.4268605   -19.385211    2.1642497   -1.4802786   -8.8123933   -62.635258   -1.2377452   -9.0358117            0            0            0   -1.2160263   -1.1485468   -129.87376 
   17200    129.56615    6129.3565    6110.8102    2199.8058    509.72237    2.3270458   -1.1776669   -19.508767   -62.804328   -1.4119946   -19.517966    2.1562922   -1.4533596   -9.1273423   -62.519928   -1.2257486   -9.1204305            0            0            0   -1.2175671   -1.1500594   -129.88273 
   17300    129.56615    6424.3656    6531.2823    2559.2812    509.87858    2.2960168   -1.2187383   -19.618873   -62.823764   -1.3851353   -19.686417    2.1781854   -1.5143214   -9.2481394   -62.597227   -1.1988698   -9.2078201            0            0            0   -1.2191079   -1.1515721    -129.8917 
   17400    129.56615    6739.7385     6970.446    3095.3975     512.4293    2.3292193   -1.1566554   -19.768827   -62.885898   -1.4548686   -19.873862    2.1527197    -1.544235   -9.3460891   -62.694212   -1.2789847   -9.4245049            0            0            0   -1.2206487   -1.1530848   -129.90067 
   17500    129.56615    7209.7301    7279.1139    3963.4867    509.47873     2.300696   -1.0676382   -19.981262   -62.855651   -1.4955406   -19.976572    2.0940658   -1.4382796   -9.5574297   -62.647545   -1.2927356   -9.5465641            0            0            0   -1.2221895   -1.1545975   -129.90964 
   17600    129.56615    7534.2336    7353.0002    4282.3729    512.87485    2.3514702   -1.0538306   -20.084438   -62.891258   -1.5333521   -20.104595    2.1089402   -1.3747482   -9.7011114   -62.689433   -1.2715922   -9.7375516            0            0            0   -1.2237304   -1.1561102   -129.91861 
   17700    129.56615    7828.0062    8041.8382    5027.2343    510.58765    2.3486769    -1.049687   -20.206593   -62.943236   -1.6288971    -20.33171     2.129255   -1.3285539   -9.8710865   -62.785837   -1.3993296   -9.9542719            0            0            0   -1.2252712   -1.1576228   -129.92758 
   17800    129.56615    8106.6718    8247.1574    5416.9172    512.24646    2.4148159   -1.1295383    -20.32212   -62.958024   -1.6676313   -20.525991    2.1973773   -1.2871708    -9.940294   -62.752164   -1.4689783   -10.135686            0            0            0    -1.226812   -1.1591355   -129.93655 
   17900    129.56615    8187.4203    8393.5009    5598.6201    515.22495    2.4054987   -1.1340777   -20.379318   -62.967133   -1.6538278   -20.502907    2.1767988    -1.223638   -10.070218   -62.811543   -1.4715705   -10.184948            0            0            0   -1.2283528   -1.1606482   -129.94552 
   18000    129.56615    8522.7548    8506.5441    5877.0147    514.78707    2.4072045   -1.0564281   -20.517886   -62.993126   -1.7529903   -20.610545    2.1616773   -1.2316062   -10.220677   -62.844928    -1.596412   -10.296195            0            0            0   -1.2298936   -1.1621609    -129.9545 
   18100    129.56615      8576.03     8626.061    5896.0761    513.77009    2.3707253  -0.99939999   -20.616295   -62.962691   -1.6963038   -20.654829    2.1509323   -1.1516871   -10.303037    -62.85876   -1.5633478    -10.36728            0            0            0   -1.2314344   -1.1636735   -129.96347 
   18200    129.56615    8652.3647    8547.9026    5844.1419    512.56247    2.3197557  -0.96564648   -20.443971   -62.955436   -1.6149928   -20.581519    2.0611562   -1.1858855   -10.119631   -62.842059   -1.5320216   -10.269905            0            0            0   -1.2329752   -1.1651862   -129.97244 
   18300    129.56615    8269.9676    8367.3179    5540.7014    512.89587    2.3776984  -0.96720517   -20.350302   -62.891436   -1.5805589   -20.482179      2.10346   -1.2137417   -10.028402   -62.756094   -1.4194134     -10.1743            0            0            0    -1.234516   -1.1666989   -129.98141 
   18400    129.56615    8014.0592    7940.2934    4845.6192    515.13965    2.3670449  -0.97701805   -20.293451   -62.899799   -1.4981949   -20.439392    2.0623905   -1.2577977   -9.9564739     -62.7258    -1.340637   -10.097026            0            0            0   -1.2360569   -1.1682116   -129.99038 
   18500    129.56615    7721.4203    7691.4883     4524.932    510.81435    2.3500954   -1.0567426   -20.238637   -62.862261   -1.5051411   -20.334657    2.0428095   -1.3537464   -9.8553752   -62.696145   -1.2718608   -9.9422127            0            0            0   -1.2375977   -1.1697243   -129.99935 
   18600    129.56615    7173.6005    7276.2196    3635.9165     512.5617    2.4172675   -1.0241558   -20.042044    -62.82263   -1.4669928   -20.210109     2.128694   -1.3392674   -9.6218823   -62.693691   -1.1877376   -9.8098845            0            0            0   -1.2391385   -1.1712369   -130.00832 
   18700    129.56615    6720.3237    6684.8875    2987.3619    513.83411    2.4059937   -1.0808271   -19.810333   -62.842509   -1.4937183   -20.056292    2.1667376   -1.3590128   -9.3980615   -62.737157   -1.1986279    -9.639819            0            0            0   -1.2406793   -1.1727496   -130.01729 
   18800    129.56615    6356.7398    6201.6009    2088.1286    508.84992    2.4642482   -1.1518287   -19.677817   -62.833239   -1.4784358     -19.8735    2.2890218   -1.4319077   -9.2833468   -62.723327   -1.1665414   -9.4943168            0            0            0   -1.2422201   -1.1742623   -130.02626 
   18900    129.56615    5869.6128    5838.5792    1394.2674    505.17872    2.4634897   -1.1410094   -19.617965   -62.803365   -1.5086183   -19.753979    2.2925726   -1.3857007    -9.219171    -62.66495   -1.2596863   -9.3769005            0            0            0   -1.2437609    -1.175775   -130.03523 
   19000    129.56615    5388.9103     5357.063    364.24041    508.71118    2.4720707    -1.183699   -19.552433   -62.777922    -1.536329   -19.546433    2.3340951   -1.3870772   -9.1295161    -62.58458   -1.3680768   -9.1579642            0            0            0   -1.2453017   -1.1772876    -130.0442 
   19100    129.56615    4931.0875     4932.095   -158.41131    509.03284    2.4482598   -1.1744803   -19.363728   -62.750831    -1.500058   -19.468032    2.2691567   -1.4251298    -8.912007   -62.543004   -1.3580881   -9.1158608            0            0            0   -1.2468425   -1.1788003   -130.05317 
   19200    129.56615    4537.4846    4560.1955    -823.0463    504.10225    2.4898243   -1.1887242    -19.24007   -62.772231   -1.5176235   -19.398513    2.3052676   -1.3285169   -8.8413476    -62.50487   -1.3460409   -8.9884911            0            0            0   -1.2483834    -1.180313   -130.06214 
   19300    129.56615    4246.2635    4184.3846   -1225.8625    500.84549    2.5256575   -1.1418867   -19.261376   -62.827772   -1.5114761   -19.280378    2.3905643   -1.2951494   -8.8501541   -62.581145   -1.2446843   -8.8674062            0            0            0   -1.2499242   -1.1818257   -130.07111 
   19400    129.56615     3800.331    3851.6844   -2076.1402    504.82307    2.4942269   -1.0792535   -19.139818   -62.764989   -1.4090207   -19.142454    2.3113406   -1.1623131   -8.6506802   -62.500365   -1.1265747   -8.7547161            0            0            0    -1.251465   -1.1833384   -130.08008 
   19500    129.56615    3513.5304    3552.1708   -2527.5628    499.56379    2.5464377   -1.1026422   -18.984406   -62.701387   -1.4605422   -19.026632    2.3120481   -1.1775896   -8.5301976   -62.390573   -1.2213563   -8.6935076            0            0            0   -1.2530058    -1.184851   -130.08905 
   19600    129.56615    3221.6603    3193.1854   -3103.1866    497.80259    2.5588977   -1.0624418    -18.92407   -62.679065   -1.5076919   -19.014342    2.3321511   -1.2389863   -8.4036099   -62.441671   -1.2838155   -8.6204097            0            0            0   -1.2545466   -1.1863637   -130.09803 
   19700    129.56615    3027.8584    3098.4632   -3684.7651    497.81682     2.599345  -0.98510964   -18.874292   -62.732303   -1.5733486   -18.917081     2.389019   -1.1643738   -8.4433494   -62.508583   -1.3876308   -8.4992619            0            0            0   -1.2560874   -1.1878764     -130.107 
   19800    129.56615     2636.897    2462.8006   -4312.6355    499.27541    2.5924326   -1.0259488   -18.850399   -62.736354   -1.5981253   -18.853166    2.4439764   -1.3175247   -8.4856765   -62.515455   -1.4544438   -8.4073564            0            0            0   -1.2576282   -1.1893891   -130.11597 
   19900    129.56615    2387.9792    2319.7937   -4773.7466    495.46903    2.6050216   -1.1009109   -18.850502   -62.725882   -1.5940557   -18.786642     2.430342   -1.3839218   -8.4419284   -62.568998   -1.4091524   -8.3073239            0            0            0    -1.259169   -1.1909017   -130.12494 
   20000    129.56615    2056.5776     2118.237   -5329.1132     497.9275    2.6123859   -1.2033024   -18.872972    -62.70733   -1.6899227   -18.745474    2.4356769   -1.4735613   -8.5267077   -62.597775   -1.4675553    -8.261418            0            0            0   -1.2607099   -1.1924144   -130.13391 
   20100    129.56615    1753.5725    1797.9108    -5595.313    500.54567    2.6014209   -1.2130226   -18.840694    -62.69254   -1.6399618   -18.862658    2.3321628   -1.5094981   -8.5000791   -62.627425   -1.3859919   -8.3839929            0            0            0   -1.2622507   -1.1939271   -130.14288 
   20200    129.56615    1845.6769    1806.2416   -5799.8814    495.91954    2.5730127   -1.2244722   -18.809469   -62.655934   -1.5945186   -18.872079    2.3520775   -1.4832712   -8.4008874   -62.544325   -1.3439172   -8.4903406            0            0            0   -1.2637915   -1.1954398   -130.15185 
   20300    129.56615    1556.9887    1823.7981   -5868.2832    497.06826    2.5942793    -1.137941   -18.800529   -62.729796   -1.5993527   -18.901603    2.3236042   -1.4106177   -8.4024684   -62.601304   -1.3448631   -8.4907521            0            0            0   -1.2653323   -1.1969525   -130.16082 
   20400    129.56615    1698.7265    1829.6595   -5494.0638    497.25237    2.5587507   -1.1368245   -18.868693   -62.710402    -1.588332   -18.953813     2.362152   -1.3774152   -8.5127859   -62.555375    -1.414117   -8.4855952            0            0            0   -1.2668731   -1.1984651   -130.16979 
   20500    129.56615    2028.4814    2013.4468   -5383.5032     499.0457    2.5358435   -1.1779397   -18.957635   -62.698121   -1.6357908   -19.076422    2.2840711   -1.3852274   -8.5569289   -62.502674   -1.5024449    -8.693663            0            0            0   -1.2684139   -1.1999778   -130.17876 
   20600    129.56615    2236.0014    2103.2922   -5171.6862    500.00652    2.5970075   -1.2152934   -18.994182   -62.695696   -1.6356279   -19.072995    2.3530167   -1.4126087   -8.5481957   -62.470658   -1.5408472   -8.6427586            0            0            0   -1.2699547   -1.2014905   -130.18773 
   20700    129.56615    2443.2336    2508.6827   -4538.9705    500.42362    2.5862205   -1.2104206   -18.991996   -62.639678   -1.5929844   -19.162427    2.3918656   -1.4947858   -8.5540727   -62.447778   -1.4394426   -8.7812347            0            0            0   -1.2714955   -1.2030032    -130.1967 
   20800    129.56615    2784.5828    3018.5026   -3866.1044    502.04129    2.5438344   -1.2189028    -19.03961   -62.663951    -1.607081   -19.216772    2.3648615   -1.5007447   -8.6326633   -62.473137   -1.4683078   -8.9026649            0            0            0   -1.2730364   -1.2045158   -130.20567 
   20900    129.56615    3254.1859    3368.1238   -3113.0309    501.60776    2.5569572   -1.2951325   -19.149839   -62.702367   -1.6733075   -19.288098    2.3794135   -1.5542074   -8.7070588   -62.532848   -1.4407011   -8.8780108            0            0            0   -1.2745772   -1.2060285   -130.21464 
   21000    129.56615    3738.4112    3739.7762   -2255.3487    506.08919    2.5624612   -1.2519663   -19.276176   -62.753882   -1.7188162   -19.324763    2.3926957   -1.5169261   -8.8694318      -62.626   -1.4535072   -8.9057504            0            0            0    -1.276118   -1.2075412   -130.22361 
   21100    129.56615    4468.9994    4384.2493   -1164.1336    501.51066    2.5171107    -1.218508   -19.353406   -62.776826   -1.6595521   -19.504428     2.364713   -1.4633721   -8.9081979   -62.674752   -1.4958017   -9.1772166            0            0            0   -1.2776588   -1.2090539   -130.23258 
   21200    129.56615    4740.2847     4642.004   -536.06126    509.35614    2.5838335   -1.1660407   -19.396877   -62.781985   -1.6607688   -19.573072     2.444197   -1.4093937   -8.9920175   -62.607056   -1.4664981      -9.1744            0            0            0   -1.2791996   -1.2105666   -130.24156 
   21300    129.56615    5123.3145     5055.165    143.74712    506.45306    2.5975104   -1.1505071   -19.525802   -62.737971   -1.6018368    -19.67415    2.3919266   -1.3589927    -9.130206   -62.514566    -1.362879   -9.3291969            0            0            0   -1.2807404   -1.2120792   -130.25053 
   21400    129.56615    5596.6119     5535.054     917.7074    509.06285    2.5468665   -1.1911391   -19.634061   -62.655296   -1.5522406   -19.767544    2.3222394   -1.4534829   -9.2807869   -62.484904    -1.266555   -9.3876174            0            0            0   -1.2822812   -1.2135919    -130.2595 
   21500    129.56615    6089.9988    6058.2436    1728.0564    507.33032    2.5024839   -1.2258088   -19.805283   -62.615278   -1.5410424   -19.848293    2.2532708   -1.4942842   -9.4446156    -62.41753    -1.243291   -9.4234165            0            0            0    -1.283822   -1.2151046   -130.26847 
   21600    129.56615    6237.4753    6204.5596    2108.6138    513.41073     2.533253   -1.1932675   -20.050304   -62.704216   -1.5817907   -19.952152    2.2739152   -1.4469862   -9.6129838   -62.515277   -1.3103111    -9.555183            0            0            0   -1.2853629   -1.2166173   -130.27744 
   21700    129.56615    6876.9719    6742.1327    2918.7867    506.97992    2.4879151   -1.1308241    -20.22739   -62.763572   -1.5764077   -20.120877    2.2576329   -1.4085103   -9.8324155   -62.595423   -1.3428401   -9.6723513            0            0            0   -1.2869037     -1.21813   -130.28641 
   21800    129.56615    6977.0057    6974.2243    3208.1805    510.65127    2.5267305   -1.1686181   -20.353306   -62.779269   -1.5095956   -20.270579    2.2947953    -1.431281   -9.9753882   -62.598974   -1.4037752   -9.8716909            0            0            0   -1.2884445   -1.2196426   -130.29538 
   21900    129.56615    7300.0233    7434.4612     3931.735    512.01115    2.5381466   -1.1579588   -20.435126   -62.771488     -1.50809   -20.392117    2.3555703   -1.3944739   -10.145372   -62.578167   -1.3509577   -10.006881            0            0            0   -1.2899853   -1.2211553   -130.30435 
   22000    129.56615    7678.3564    7662.7622    4448.1379    513.20989    2.5239596   -1.1644512   -20.570128   -62.843897   -1.5431987   -20.455417    2.3587442   -1.3760122   -10.282691   -62.632097   -1.2905926   -10.038799            0            0            0   -1.2915261    -1.222668   -130.31332 
   22100    129.56615    7784.8923    7861.7647    4953.0172    513.73768    2.5157316   -1.1468451   -20.735975   -62.864244   -1.5333334   -20.549485     2.397468    -1.403056   -10.428808   -62.666284   -1.2704041   -10.131002            0            0            0   -1.2930669   -1.2241807   -130.32229 
   22200    129.56615    8145.0563    8156.2955    5465.2785    511.45803    2.4685474   -1.1738005   -20.840698   -62.921315   -1.5153503   -20.753469    2.3282675   -1.4153185   -10.480486   -62.687054   -1.2969535   -10.355281            0            0            0   -1.2946077   -1.2256933   -130.33126 
   22300    129.56615    8279.8345    8259.0186    5413.0872    516.56266    2.4464735   -1.1064907    -20.89794   -62.876557   -1.4516013   -20.886207    2.3092853   -1.3470913    -10.57461   -62.679049    -1.181723   -10.610398            0            0            0   -1.2961485    -1.227206   -130.34023 
   22400    129.56615    8361.2354    8350.6521     5633.133    515.93209     2.467612   -1.0015955   -20.898944   -62.849899    -1.528911   -20.885624    2.2789023   -1.2597144   -10.631032   -62.649568   -1.3214032   -10.569017            0            0            0   -1.2976894   -1.2287187    -130.3492 
   22500    129.56615    8584.1334    8625.4917    5850.5663    515.05138    2.4529338  -0.94931288   -20.889844   -62.817166   -1.5296226   -20.978108    2.2299774   -1.1336782   -10.627694   -62.685633    -1.316825   -10.664956            0            0            0   -1.2992302   -1.2302314   -130.35817 
   22600    129.56615    8483.6999    8293.3041    5621.0184    513.11629    2.4151465  -0.99741026   -20.810153   -62.837307   -1.5850884   -21.073907    2.1982472   -1.2248893   -10.543009   -62.682421   -1.2945428   -10.780765            0            0            0    -1.300771   -1.2317441   -130.36714 
   22700    129.56615     8492.267      8185.98    5301.0355    511.35159    2.4012861   -1.0284789   -20.770422    -62.82065    -1.576558   -20.954999    2.1618544   -1.2613941   -10.470517   -62.642541   -1.3073437   -10.650274            0            0            0   -1.3023118   -1.2332567   -130.37611 
   22800    129.56615    7924.8125    7972.5781    4954.8012    512.59801    2.3534529  -0.99577401   -20.661536   -62.846247   -1.5314866   -20.817104    2.0875067   -1.2059769   -10.260462   -62.617094   -1.2986459   -10.504672            0            0            0   -1.3038526   -1.2347694   -130.38509 
   22900    129.56615    7675.4276    7519.3271    4236.7079    510.86228    2.4267206  -0.95041349   -20.536581   -62.834597     -1.57306   -20.771032    2.1652865   -1.0815928   -10.142361   -62.649392     -1.40245   -10.520842            0            0            0   -1.3053934   -1.2362821   -130.39406 
   23000    129.56615    7189.8169     7238.967    3562.6534    511.44168    2.4143222   -1.0312222   -20.337089   -62.858617   -1.6167185    -20.59711     2.166584   -1.1602266   -10.001607   -62.666731   -1.4467986   -10.256738            0            0            0   -1.3069342   -1.2377948   -130.40303 
   23100    129.56615    6768.0311    6461.8388    2737.2339    511.99438    2.3902883   -1.1050511   -20.146703   -62.892857   -1.6075913    -20.48348    2.2144237   -1.2525238   -9.7586215   -62.700153   -1.4462904   -10.135647            0            0            0    -1.308475   -1.2393074     -130.412 
   23200    129.56615    6130.6387    6126.7748    1850.0207     511.0597    2.3861189   -1.1120952   -20.008331   -62.899502   -1.6149083   -20.344198    2.2048491   -1.2841913   -9.5770729   -62.704799   -1.3621142   -9.9994245            0            0            0   -1.3100159   -1.2408201   -130.42097 
   23300    129.56615    5752.5002    5531.3548    959.78402     508.1064    2.3705524   -1.1510184   -19.853406   -63.008282   -1.6129685    -20.15721    2.1939335   -1.3541455   -9.4060981    -62.86625    -1.316909   -9.7090592            0            0            0   -1.3115567   -1.2423328   -130.42994 
   23400    129.56615    5138.3468    5061.6327    66.296865     506.3611    2.3629392   -1.1616698   -19.743542   -62.955005   -1.6076652   -19.994108    2.1740028    -1.445785   -9.3097803   -62.827821   -1.2726844   -9.5554906            0            0            0   -1.3130975   -1.2438455   -130.43891 
   23500    129.56615    4900.6159     4840.218   -349.22143    506.10037    2.3248912   -1.2409734   -19.604886   -63.016324   -1.5389599   -19.887795    2.1280027   -1.5416892   -9.2399182   -62.850409   -1.2265255   -9.4767117            0            0            0   -1.3146383   -1.2453582   -130.44788 
   23600    129.56615    4517.3862     4395.459   -1132.6854    504.63648    2.3070519   -1.2896365   -19.617428   -63.001418    -1.529229   -19.734324    2.1186129   -1.5490995   -9.2391489   -62.796766   -1.3069248   -9.3532526            0            0            0   -1.3161791   -1.2468708   -130.45685 
   23700    129.56615    4121.6286    3948.9307   -1719.1142    505.97612    2.3022402   -1.2028265    -19.59595   -62.992633    -1.531711   -19.620668    2.1456619     -1.46628   -9.2088543   -62.778891   -1.3606508   -9.2476471            0            0            0   -1.3177199   -1.2483835   -130.46582 
   23800    129.56615     3691.893    3731.9176   -2303.7997    503.91254    2.2382923   -1.1603966   -19.543949   -62.914903   -1.5470983   -19.523634     2.094958   -1.4411823   -9.1226471    -62.71211   -1.3687827   -9.1242803            0            0            0   -1.3192607   -1.2498962   -130.47479 
[...]
  999000    129.56615    5332.9623     5381.486    105.28963    506.33402   -12.809876   -15.934644   -107.76329   -78.123246   -16.378023   -107.69129   -12.988985   -16.115864   -97.527159    -77.98638   -16.177031   -97.500768            0            0            0   -16.345264   -16.001531   -217.95634 
  999100    129.56615    5274.8679    5287.8287    129.94406    507.15674   -12.826729   -15.935815   -107.78819   -78.115348   -16.385557   -107.68882   -13.040958   -16.191939   -97.527956   -77.933392   -16.136573   -97.488062            0            0            0   -16.346804   -16.003044   -217.96531 
  999200    129.56615    5347.3107    5281.7735   -37.188093    507.06167   -12.807171    -15.93976   -107.83397   -78.050978   -16.367972   -107.71594   -12.970112    -16.21549   -97.652254   -77.877139   -16.094128   -97.472749            0            0            0   -16.348345   -16.004556   -217.97428 
  999300    129.56615    5275.7733    5217.0514   -86.081005    507.24641   -12.856387   -15.945253   -107.92617   -77.994892   -16.329074   -107.71404   -13.062679   -16.191733   -97.742745   -77.817356     -16.0661   -97.406732            0            0            0   -16.349886   -16.006069   -217.98325 
  999400    129.56615    5336.6896    5314.8119    80.912999    507.49677   -12.865659   -15.914645   -107.84677   -77.969134   -16.317325   -107.78716   -13.081137   -16.155818    -97.57705    -77.80642   -16.145774   -97.543617            0            0            0   -16.351427   -16.007582   -217.99222 
  999500    129.56615    5331.9365    5206.6277    27.015312    507.93439   -12.870604   -15.919465   -107.83992   -77.973328   -16.314823   -107.80089   -13.120235   -16.162682   -97.562258   -77.797193   -16.192498   -97.591865            0            0            0   -16.352968   -16.009094   -218.00119 
  999600    129.56615    5453.3394    5399.9256    134.48149    505.15141   -12.835024   -15.908371   -107.86497   -77.997207   -16.288958   -107.87398   -13.100846   -16.148378   -97.605134   -77.816975   -16.158957   -97.659873            0            0            0   -16.354508   -16.010607   -218.01017 
  999700    129.56615    5293.1198       5176.8     -35.8518    506.80743   -12.819345   -15.862034   -107.87105   -77.991934   -16.294741   -107.96999   -13.127543   -16.128307   -97.622013   -77.883405   -16.081643   -97.772442            0            0            0   -16.356049    -16.01212   -218.01914 
  999800    129.56615    5336.2565    5153.7434   -33.263368    509.01763   -12.788724   -15.923769   -107.86037   -78.029125   -16.364116   -107.96423   -13.008005   -16.151709   -97.625611   -77.889122   -16.148627   -97.761592            0            0            0    -16.35759   -16.013632   -218.02811 
  999900    129.56615    5301.7489    5154.1506    -26.50487    510.55826   -12.726724   -15.885466   -107.90048   -78.024229   -16.379716   -107.90293   -12.944798   -16.088559   -97.696604   -77.832686   -16.125112   -97.671339            0            0            0   -16.359131   -16.015145   -218.03708 
 1000000    129.56615    5305.8588    5293.0287   -11.296396    507.47805   -12.705849   -15.926847    -107.8386   -78.024311   -16.381549   -107.88111   -12.883041   -16.130063   -97.644362   -77.813613   -16.140397   -97.666501            0            0            0   -16.360672   -16.016658   -218.04605 
 1000100    129.56615    5349.1407     5177.349    1.8204893     508.4259   -12.687244   -15.955942   -107.78391   -78.027532   -16.356251   -107.94669   -12.861979   -16.145338   -97.611722   -77.860168   -16.116204   -97.739888            0            0            0   -16.362213   -16.018171   -218.05502 
 1000200    129.56615    5467.9457    5216.1186    62.636055      508.402    -12.67564   -15.916829   -107.70674   -78.019745   -16.416858   -107.97537   -12.882704   -16.148823   -97.491206   -77.834706   -16.222105   -97.736866            0            0            0   -16.363753   -16.019683   -218.06399 
 1000300    129.56615    5390.9723    5229.0838   -223.08399    507.88449   -12.727563   -15.914952   -107.69972   -78.009566   -16.407969   -108.02542     -12.9555   -16.189866   -97.503056   -77.867697   -16.180517   -97.722532            0            0            0   -16.365294   -16.021196   -218.07296 
 1000400    129.56615    5074.1288    5225.9557   -139.55768    509.84909   -12.699175   -15.922824   -107.70913   -77.953056   -16.371086   -107.97577   -12.957099   -16.198747   -97.459652   -77.762021   -16.132216   -97.714814            0            0            0   -16.366835   -16.022709   -218.08193 
 1000500    129.56615    5120.8662    4974.7482   -307.39459    509.79726   -12.737052   -15.899346   -107.73865   -77.886301   -16.356484   -107.96318   -12.994225   -16.103771   -97.479254   -77.645767   -16.082595   -97.718374            0            0            0   -16.368376   -16.024221    -218.0909 
 1000600    129.56615    5073.6484    4951.5119   -346.64606    510.30324    -12.72641   -15.857261   -107.72811   -77.825207    -16.40102   -107.99088   -12.974253   -16.059204   -97.523919   -77.569062   -16.137446   -97.765852            0            0            0   -16.369917   -16.025734   -218.09987 
 1000700    129.56615    5190.8408    5117.8809   -275.68178    506.39222   -12.691749     -15.8773   -107.75231   -77.846199   -16.384834   -107.93566   -12.904628   -16.100609   -97.518512   -77.614213   -16.170567   -97.720434            0            0            0   -16.371457   -16.027247   -218.10884 
 1000800    129.56615    5019.7792    4960.2596    -418.4108    509.95964    -12.63305    -15.91467   -107.85915   -77.855128    -16.43914   -107.96136   -12.831896   -16.146154   -97.590186   -77.667831   -16.256323   -97.714379            0            0            0   -16.372998   -16.028759   -218.11781 
 1000900    129.56615    5083.4148    5061.1133   -130.23749    510.67161   -12.644098   -15.901058   -107.87358   -77.852796   -16.393082   -107.96641   -12.853868   -16.118352    -97.62407   -77.691998   -16.194753   -97.759343            0            0            0   -16.374539   -16.030272   -218.12678 
 1001000    129.56615      5178.63    5160.5052   -63.927928    510.82449   -12.618423   -15.955763    -107.8728   -77.867094   -16.400751   -108.01127   -12.846005   -16.207614   -97.637401   -77.747995   -16.241679     -97.8023            0            0            0    -16.37608   -16.031785   -218.13575 
 1001100    129.56615    5211.1395    5267.0461    -203.7975    509.11525   -12.595969   -15.978975   -107.84897   -77.909897   -16.353699   -108.01321   -12.791274   -16.244463   -97.632546   -77.763485   -16.195859   -97.766472            0            0            0   -16.377621   -16.033297   -218.14472 
 1001200    129.56615    5178.3993    5172.5369   -42.055606    510.84889    -12.59816   -16.042225    -107.8956   -77.914706   -16.437693   -108.01788   -12.753772   -16.287557   -97.702222   -77.781411   -16.262209   -97.814784            0            0            0   -16.379161    -16.03481    -218.1537 
 1001300    129.56615     5259.297    5273.4471    27.671568    510.72399   -12.599766   -16.089262   -107.99025   -77.881287   -16.411075   -107.99497   -12.752951   -16.242304   -97.787857   -77.656966   -16.176159   -97.767937            0            0            0   -16.380702   -16.036323   -218.16267 
 1001400    129.56615    5374.7237    5229.0602   -26.521767    508.45087   -12.601335   -16.058249   -107.97996   -77.851313   -16.364266   -107.96711   -12.776631   -16.237744    -97.79906   -77.618831   -16.145615   -97.675448            0            0            0   -16.382243   -16.037835   -218.17164 
 1001500    129.56615    5471.9316    5332.1027   -7.4822045    508.05602   -12.615449   -16.005929   -107.98721   -77.860428   -16.379608   -107.97082   -12.815452    -16.22818   -97.717767   -77.654589   -16.116466   -97.723089            0            0            0   -16.383784   -16.039348   -218.18061 
 1001600    129.56615    5021.8704    5084.8551    -45.88539    510.40955    -12.60866   -15.979466   -108.00022   -77.829062   -16.349996   -107.96084   -12.870636   -16.276933   -97.709712   -77.632922   -16.096853    -97.77823            0            0            0   -16.385325   -16.040861   -218.18958 
 1001700    129.56615    5190.4776    5443.3004    238.06139    506.76395   -12.601636   -16.007848   -108.02652   -77.823715   -16.405196   -107.99192   -12.854158   -16.349298   -97.788189   -77.646881   -16.194644   -97.792479            0            0            0   -16.386866   -16.042373   -218.19855 
 1001800    129.56615    5252.5086    5271.1732   -85.311562    508.93138   -12.591209   -16.038311   -108.03815   -77.869349   -16.439243   -108.00158   -12.827056   -16.346674   -97.844722   -77.700431    -16.26786   -97.814637            0            0            0   -16.388406   -16.043886   -218.20752 
 1001900    129.56615    5337.0216    5444.8835    22.707727    508.19758   -12.578427    -15.99041   -108.06736   -77.849207   -16.466303   -108.03592   -12.807614   -16.150202   -97.864644   -77.680127   -16.228774   -97.769154            0            0            0   -16.389947   -16.045399   -218.21649 
 1002000    129.56615    5429.9218    5437.6414    30.457092    507.18074   -12.556501   -15.988045   -108.14217   -77.838499   -16.453404   -108.14305   -12.748081    -16.16621    -97.93613   -77.687004   -16.253202   -97.889084            0            0            0   -16.391488   -16.046911   -218.22546 
 1002100    129.56615    5268.6824    5471.0587    18.186881     507.1005   -12.598125   -15.960193   -108.13297   -77.838225   -16.493502   -108.15983   -12.824724   -16.154337   -97.898136   -77.677057   -16.276846   -97.884869            0            0            0   -16.393029   -16.048424   -218.23443 
 1002200    129.56615     5238.912    5114.7376   -150.56765    506.36917   -12.568069   -15.930342   -108.11938   -77.839345   -16.547851   -108.12199   -12.776672   -16.087352   -97.920546   -77.694979   -16.301182   -97.890739            0            0            0    -16.39457   -16.049937    -218.2434 
 1002300    129.56615    5367.0526    5290.8635    28.825193    508.85788   -12.610335    -15.90659   -108.07645   -77.860972   -16.549223    -108.1485   -12.834755   -16.095349    -97.84715   -77.703457   -16.302158   -97.943847            0            0            0    -16.39611   -16.051449   -218.25237 
 1002400    129.56615    5277.9741    5379.2088   -43.914977    508.36528    -12.57529   -15.887521   -108.08695    -77.81217    -16.50368   -108.21563   -12.762476    -16.11582   -97.815708   -77.682361   -16.310071    -98.02366            0            0            0   -16.397651   -16.052962   -218.26134 
 1002500    129.56615    5453.0274    5299.2229    42.122206    506.91446    -12.57168   -15.893006   -107.98232   -77.792276   -16.423267   -108.26217   -12.801311   -16.094259   -97.729892    -77.56507   -16.216696   -97.995059            0            0            0   -16.399192   -16.054475   -218.27031 
 1002600    129.56615    5246.3403    5052.6973    35.313509    511.64316   -12.542325   -15.957361     -107.946   -77.840251   -16.461157   -108.26331   -12.777579    -16.13155   -97.704272   -77.633087   -16.230906   -98.038395            0            0            0   -16.400733   -16.055987   -218.27928 
 1002700    129.56615     5535.801    5307.1936    480.88278    507.86809   -12.530329   -15.994605   -107.91732    -77.81771   -16.526513   -108.19349   -12.759679   -16.185891    -97.71206     -77.5937   -16.309431   -98.024895            0            0            0   -16.402274     -16.0575   -218.28825 
 1002800    129.56615    5663.3358    5425.5073    486.15017    508.41509   -12.572272   -16.008406   -107.92853   -77.825274   -16.534628   -108.17245   -12.775455   -16.213638   -97.700607   -77.598693   -16.292591   -97.954932            0            0            0   -16.403814   -16.059013   -218.29723 
 1002900    129.56615    5419.6607    5463.2398    313.58931    509.87752   -12.577478   -16.055113   -107.98385   -77.799225   -16.523481   -108.19511   -12.789086   -16.327888   -97.729071   -77.611625   -16.288015   -97.963595            0            0            0   -16.405355   -16.060526    -218.3062 
 1003000    129.56615    5534.4242    5551.1912    335.55874    508.14285   -12.598425   -16.045936   -108.08521   -77.819688   -16.512726   -108.25032   -12.793277   -16.314088   -97.790769   -77.615812   -16.281741   -98.008958            0            0            0   -16.406896   -16.062038   -218.31517 
 1003100    129.56615    5371.0471    5277.9436    31.171975    509.07141   -12.648223   -16.132836   -108.09539    -77.79429   -16.482491   -108.23697   -12.811766   -16.377141   -97.832616    -77.55349   -16.310073    -97.96235            0            0            0   -16.408437   -16.063551   -218.32414 
 1003200    129.56615    5473.4618    5322.2067    44.995958    506.28566   -12.600097   -16.183879    -108.1275   -77.844555   -16.439331   -108.19143   -12.814711   -16.445208    -97.88794   -77.645772   -16.246886    -97.96708            0            0            0   -16.409978   -16.065064   -218.33311 
 1003300    129.56615    5219.7733    5224.3492    37.480811    508.20425   -12.597492   -16.203866   -108.09499   -77.906715   -16.506666   -108.21553   -12.790184   -16.449649   -97.828148   -77.763793    -16.33079   -98.005128            0            0            0   -16.411519   -16.066576   -218.34208 
 1003400    129.56615    5173.8562    5339.2577    34.777707    508.96883   -12.559912   -16.170593   -108.12476   -77.878696    -16.52837   -108.26474   -12.777111   -16.390075   -97.892775   -77.719556   -16.346289   -98.045208            0            0            0   -16.413059   -16.068089   -218.35105 
 1003500    129.56615    5223.5531    5265.5245   -8.5612429    509.06362     -12.6231   -16.141931   -108.15296   -77.905715   -16.545812   -108.25133   -12.860356   -16.409358   -97.957847   -77.737396      -16.344   -98.051407            0            0            0     -16.4146   -16.069602   -218.36002 
 1003600    129.56615    5251.9771    5266.7396    4.3666647    509.45612    -12.62187   -16.155619    -108.2214   -77.972016   -16.528947   -108.16677   -12.810561   -16.422075   -98.034567   -77.747041   -16.324537   -97.913435            0            0            0   -16.416141   -16.071114   -218.36899 
 1003700    129.56615    5384.3126    5346.5774   -42.711291    508.42181   -12.667024   -16.140964   -108.24654   -77.903248   -16.574857   -108.10207   -12.829418   -16.416209   -98.029114   -77.734934   -16.420485   -97.825358            0            0            0   -16.417682   -16.072627   -218.37796 
 1003800    129.56615    5348.5531    5206.5061    70.489491    509.44678   -12.693046   -16.148113   -108.25294   -77.935651   -16.515888   -108.05568    -12.87929     -16.4387   -98.047758   -77.757567   -16.382944   -97.776063            0            0            0   -16.419223    -16.07414   -218.38693 
 1003900    129.56615    5259.5255    5300.0154    124.44026     508.9429    -12.74759   -16.109971    -108.2801   -77.916895    -16.55907    -108.1018   -12.980677   -16.415408   -98.038905   -77.787156   -16.356026   -97.903245            0            0            0   -16.420763   -16.075652    -218.3959 
 1004000    129.56615    5195.3877    5180.9676   -184.28531    508.78011   -12.762787   -16.074396   -108.23242   -77.947344   -16.514541   -108.15361   -13.016764   -16.289001   -97.977106   -77.793875   -16.257479    -97.90868            0            0            0   -16.422304   -16.077165   -218.40487 
 1004100    129.56615     5185.462    5198.7324   -151.96625    509.14338   -12.764863    -16.05231   -108.21458    -77.96283   -16.615447   -108.21595   -13.039848    -16.27597   -97.924646   -77.797399   -16.340408   -97.946449            0            0            0   -16.423845   -16.078678   -218.41384 
 1004200    129.56615    5416.5732    5236.0287   -41.873761    507.29378   -12.729562   -16.013635   -108.21902   -78.006157    -16.66826   -108.25622   -13.036258   -16.198779   -97.996743   -77.815741   -16.397985   -98.025071            0            0            0   -16.425386    -16.08019   -218.42281 
 1004300    129.56615    5206.7436    5264.1202    44.501041    509.45605   -12.705195   -16.016706   -108.20284   -78.025662   -16.607975   -108.32446   -12.943949   -16.265476   -97.977612   -77.824133   -16.360967   -98.153943            0            0            0   -16.426927   -16.081703   -218.43178 
 1004400    129.56615    5260.2726    5195.6597   -129.71853    510.96668   -12.691044    -16.00547   -108.24607   -78.025533   -16.489086   -108.40525   -12.875088   -16.293708   -97.973789   -77.869107   -16.305436   -98.224679            0            0            0   -16.428467   -16.083216   -218.44076 
 1004500    129.56615    5316.6678    5329.4122    6.4050451    507.83915   -12.700428   -16.027081   -108.31076   -78.025661   -16.470046   -108.35865   -12.916141   -16.288446   -98.113281   -77.877344   -16.306948   -98.147823            0            0            0   -16.430008   -16.084728   -218.44973 
 1004600    129.56615    5254.8011    5289.6402   -11.173243    507.23407   -12.725809   -15.993382   -108.22385   -78.055719   -16.465264   -108.36296   -12.906672   -16.284695   -97.984499    -77.87901   -16.346519   -98.131161            0            0            0   -16.431549   -16.086241    -218.4587 
 1004700    129.56615    5358.0211    5332.8905    79.765026    508.72531   -12.756654   -15.978225   -108.16339   -78.043471   -16.442692   -108.42785   -12.924167   -16.239585   -97.980687   -77.825882   -16.294399   -98.183301            0            0            0    -16.43309   -16.087754   -218.46767 
 1004800    129.56615    5341.0604    5207.3153    28.915066    508.09434   -12.752566     -15.9944     -108.126   -78.059662   -16.473168   -108.43129   -12.933088   -16.217439   -97.888275   -77.845988   -16.194141    -98.22003            0            0            0   -16.434631   -16.089266   -218.47664 
 1004900    129.56615    5137.1942     5167.325   -212.06378    508.87417   -12.729254   -16.025358   -108.08758   -78.058766    -16.41533    -108.3904   -12.948302   -16.150989   -97.865446   -77.879345   -16.172745    -98.17153            0            0            0   -16.436172   -16.090779   -218.48561 
 1005000    129.56615      5056.11    5020.0026   -527.72487    509.74129   -12.753631   -16.012826   -108.12859   -77.985189   -16.380405   -108.38083   -13.016561   -16.181197   -97.895193   -77.806219   -16.150583   -98.147836            0            0            0   -16.437712   -16.092292   -218.49458 
Loop time of 1618.42 on 512 procs for 1000000 steps with 33024 atoms

Performance: 106.771 ns/day, 0.225 hours/ns, 617.888 timesteps/s
99.9% CPU use with 512 MPI tasks x no OpenMP threads

MPI task timing breakdown:
Section |  min time  |  avg time  |  max time  |%varavg| %total
---------------------------------------------------------------
Pair    | 424.02     | 667.75     | 789.93     | 498.5 | 41.26
Neigh   | 3.415      | 7.9458     | 10.005     |  82.3 |  0.49
Comm    | 348.99     | 503.02     | 601.14     | 377.6 | 31.08
Output  | 3.123      | 3.1372     | 3.1516     |   0.3 |  0.19
Modify  | 10.364     | 14.701     | 22.86      | 117.8 |  0.91
Other   |            | 421.9      |            |       | 26.07

Nlocal:    64.5 ave 80 max 0 min
Histogram: 64 0 19 12 1 0 0 0 51 365
Nghost:    967.189 ave 1186 max 0 min
Histogram: 64 0 0 16 16 0 0 32 0 384
Neighs:    4528.29 ave 6136 max 0 min
Histogram: 72 24 0 0 0 0 1 30 157 228

Total # of neighbors = 2318482
Ave neighs/atom = 70.206
Neighbor list builds = 29194
Dangerous builds = 0



Total wall time: 0:27:13
