LAMMPS (16 Feb 2016)
# ------------------------ INITIALIZATION ----------------------------
echo both
#log		log.c
units           metal
dimension       3
boundary        p p p
atom_style      atomic
shell         mkdir  cfg
WARNING: Shell command 'mkdir' failed with error 'File exists' (../input.cpp:1126)
shell         mkdir  dump
WARNING: Shell command 'mkdir' failed with error 'File exists' (../input.cpp:1126)
variable      myT equal 50

# ----------------------- ATOM DEFINITION ----------------------------
lattice         fcc 4.024845358 #origin 0.0 0.0 0.0 orient x 1 -1 0 orient y 1 1 -2 orient z 1 1 1
Lattice spacing in x,y,z = 4.02485 4.02485 4.02485
variable        Lx equal 125
variable        Ly equal 2
variable        Lz equal 500
variable        boxLZ equal 510
region          SYSTEM block -${Lx} ${Lx} -${Ly} ${Ly} -${Lz} 0 units lattice
region          SYSTEM block -125 ${Lx} -${Ly} ${Ly} -${Lz} 0 units lattice
region          SYSTEM block -125 125 -${Ly} ${Ly} -${Lz} 0 units lattice
region          SYSTEM block -125 125 -2 ${Ly} -${Lz} 0 units lattice
region          SYSTEM block -125 125 -2 2 -${Lz} 0 units lattice
region          SYSTEM block -125 125 -2 2 -500 0 units lattice
region          BOX block -${Lx} ${Lx} -${Ly} ${Ly} -${boxLZ} 5 units lattice
region          BOX block -125 ${Lx} -${Ly} ${Ly} -${boxLZ} 5 units lattice
region          BOX block -125 125 -${Ly} ${Ly} -${boxLZ} 5 units lattice
region          BOX block -125 125 -2 ${Ly} -${boxLZ} 5 units lattice
region          BOX block -125 125 -2 2 -${boxLZ} 5 units lattice
region          BOX block -125 125 -2 2 -510 5 units lattice
create_box      1 BOX
Created orthogonal box = (-503.106 -8.04969 -2052.67) to (503.106 8.04969 20.1242)
  32 by 1 by 64 MPI processor grid
create_atoms    1 region SYSTEM
Created 2002000 atoms

# ------------------------ FORCE FIELDS ------------------------------
pair_style      eam/alloy
pair_coeff  	  * * Al_wkg_MSMSE_2009.set Al


# ------------------------- SETTINGS ---------------------------------
thermo          100
thermo_style    custom step pe pxx pyy pzz lx ly lz vol temp

minimize      0  1e-12 100 10000
WARNING: Resetting reneighboring criteria during minimization (../min.cpp:168)
Neighbor list info ...
  1 neighbor list requests
  update every 1 steps, delay 0 steps, check yes
  max neighbors/atom: 2000, page size: 100000
  master list distance cutoff = 8.365
  ghost atom cutoff = 8.365
  binsize = 4.1825 -> bins = 241 4 496
Memory usage per processor = 3.25423 Mbytes
Step PotEng Pxx Pyy Pzz Lx Ly Lz Volume Temp 
       0   -5295404.9   -114.41542   -114.41542   -25.120562    1006.2113    16.099381    2072.7954     33578000            0 
     100   -5295406.5   -99.873611   -99.873611  -0.57022719    1006.2113    16.099381    2072.7954     33578000            0 
Loop time of 4.05926 on 2048 procs for 100 steps with 2002000 atoms

99.8% CPU use with 2048 MPI tasks x no OpenMP threads

Minimization stats:
  Stopping criterion = max iterations
  Energy initial, next-to-last, final = 
        -5295404.94143     -5295406.52593     -5295406.52593
  Force two-norm initial, final = 3.02756 0.00189441
  Force max component initial, final = 0.0381155 1.53429e-05
  Final line search alpha, max atom move = 1 1.53429e-05
  Iterations, force evaluations = 100 200

MPI task timing breakdown:
Section |  min time  |  avg time  |  max time  |%varavg| %total
---------------------------------------------------------------
Pair    | 0.47827    | 1.2302     | 1.4506     |  11.2 | 30.31
Neigh   | 0          | 0          | 0          |   0.0 |  0.00
Comm    | 0.040257   | 0.18572    | 0.73907    |  19.0 |  4.58
Output  | 0.002146   | 0.0021908  | 0.0023739  |   0.0 |  0.05
Modify  | 0          | 0          | 0          |   0.0 |  0.00
Other   |            | 2.641      |            |       | 65.06

Nlocal:    977.539 ave 1088 max 0 min
Histogram: 32 0 0 12 20 0 0 32 672 1280
Nghost:    3861.09 ave 4140 max 204 min
Histogram: 32 0 0 0 32 0 32 0 0 1952
Neighs:    68324.2 ave 76926 max 0 min
Histogram: 32 0 12 20 0 0 0 32 672 1280

Total # of neighbors = 139928000
Ave neighs/atom = 69.8941
Neighbor list builds = 0
Dangerous builds = 0

reset_timestep 0
timestep       0.002

# -------------------- Run MD NVT equilibration -------------------------
#dump          1 all custom 100 dump.atom id type x y z
#dump          2 all cfg 100 cfg/*.cfg mass type xs ys zs
#dump_modify   2 element Al


velocity       all create 300.0 4928459 mom yes rot yes dist gaussian

fix             1 all npt temp 300 300 0.1 iso 0.0 0.0 2
run      10000
Neighbor list info ...
  1 neighbor list requests
  update every 1 steps, delay 10 steps, check yes
  max neighbors/atom: 2000, page size: 100000
  master list distance cutoff = 8.365
  ghost atom cutoff = 8.365
  binsize = 4.1825 -> bins = 241 4 496
Memory usage per processor = 2.12923 Mbytes
Step PotEng Pxx Pyy Pzz Lx Ly Lz Volume Temp 
       0   -5295406.5    2372.4749    2367.6436    2468.1492    1006.2113    16.099381    2072.7954     33578000          300 
     100   -5254842.7    2904.2105    2844.8583    2978.1143    1008.7709    16.140335    2078.0681     33834897    157.17637 
     200   -5250292.4    1139.7162    1034.7885    1195.1011    1009.9741    16.159586    2080.5467     33956113    167.23624 
     300   -5245822.4    526.07766    459.53425    576.03103    1010.6252    16.170003    2081.8878     34021819    184.27222 
     400   -5240256.5    538.89874    655.14872    584.44943    1011.1296    16.178073    2082.9269     34072783    202.38181 
     500   -5235235.5    470.34118    402.55806    503.53332    1011.6703    16.186725    2084.0409     34127482    226.46041 
     600     -5228980    558.35137    477.81468    585.27259     1012.232    16.195712    2085.1979     34184355    247.53779 
     700   -5223161.5    489.77082    425.81878    522.02561    1012.8001    16.204801    2086.3682     34241942    269.18593 
     800   -5217968.6    367.00873    388.72435    380.23885    1013.3334    16.213334    2087.4668     34296063    288.21296 
     900   -5213798.9    251.34657    246.00234     249.6164    1013.7716    16.220345    2088.3694     34340571    300.09987 
    1000   -5212779.9   -52.840844   -76.527528   -51.049762    1014.0004    16.224006    2088.8408     34363832    303.12793 
    1100   -5214455.1   -118.36742   -130.81526   -117.56158    1013.8644     16.22183    2088.5607     34350007    298.13794 
    1200   -5214351.7    127.33755    91.789936    111.75806    1013.7747    16.220395    2088.3758     34340888    299.37008 
    1300   -5213221.3   -2.6334099   -22.498668   -15.790427    1013.9308    16.222893    2088.6975     34356759    302.08096 
    1400     -5213892   -78.189192   -88.098199   -73.251522    1013.8914    16.222263    2088.6163     34352753     299.3733 
    1500   -5214366.6     76.26544    54.551695    66.279246    1013.7827    16.220523    2088.3924     34341705    298.65559 
    1600   -5213517.3    33.179043    19.539162    12.712216    1013.8772    16.222036    2088.5871     34351310    301.14355 
    1700   -5213648.5   -47.782545   -83.771627   -74.095646    1013.9009    16.222415    2088.6359     34353720    300.44624 
    1800   -5214247.1    49.208459     33.17141    24.671151    1013.7979    16.220767    2088.4237     34343251    298.62731 
    1900   -5213778.1    76.520881    32.527498    20.207623    1013.8342    16.221348    2088.4985     34346941    300.18906 
    2000   -5213531.7   -22.702556    -54.58969   -53.009218    1013.8963     16.22234    2088.6263     34353245    300.86739 
    2100     -5214134    8.7886727   -21.096745   -29.522456    1013.8233    16.221172    2088.4759     34345826    299.36373 
    2200     -5214018    72.872217     30.71761    25.458617    1013.8074    16.220919    2088.4433     34344217     299.6052 
    2300   -5213581.3   -6.7380294   -29.862227   -42.779342    1013.8747    16.221995    2088.5818     34351051    300.97026 
    2400   -5213912.3   -3.2988106   -23.927913   -55.915037     1013.838    16.221408    2088.5062     34347321    299.82674 
    2500   -5214124.1    62.903092    28.675141     17.53288    1013.7899    16.220639    2088.4073     34342439    299.30453 
    2600   -5213631.3    33.748813     16.62132   -19.960762    1013.8473    16.221557    2088.5254     34348267    300.39273 
    2700   -5213768.8   -10.504143   -26.312937    -63.13247    1013.8539    16.221662     2088.539     34348940     300.3241 
    2800   -5214109.5    49.572385     24.40852   -19.071695    1013.7967    16.220747    2088.4211     34343122    299.30288 
    2900   -5213810.6    47.250783    4.5746923   -15.945894    1013.8224    16.221159    2088.4742     34345742    300.13996 
    3000   -5213637.7    7.4946559   -17.064205   -49.585091    1013.8531     16.22165    2088.5374     34348858    300.48303 
    3100   -5214004.3    32.465362    7.8858456   -25.055895    1013.8071    16.220913    2088.4426     34344180    299.39303 
    3200   -5213956.7    57.865774    29.363248    -12.71295    1013.8005    16.220808    2088.4291     34343514    299.75362 
    3300   -5213649.1      16.9441   -8.1844707   -62.480866    1013.8461    16.221538     2088.523     34348147     300.5643 
    3400   -5213953.5   -6.1913895    -6.825785     -64.6277    1013.8213    16.221141    2088.4719     34345627    300.02794 
    3500   -5214028.2    65.478622    52.306712   -6.2294008    1013.7865    16.220584    2088.4002     34342091    299.46681 
    3600   -5213747.4    24.923483   -18.705805   -54.346829    1013.8329    16.221326    2088.4958     34346805     300.4756 
    3700     -5213779    12.998705   -16.036275   -54.584824    1013.8304    16.221286    2088.4905     34346546    300.21364 
    3800   -5214119.4     36.19807    13.855738   -34.842071    1013.7914    16.220662    2088.4102     34342586    299.77319 
    3900   -5213857.7    22.619645    21.744215   -34.942697    1013.8138    16.221021    2088.4564     34344863     300.2348 
    4000   -5213728.7    11.625954  -0.38298622   -76.077781    1013.8344    16.221351    2088.4989     34346961    300.44621 
    4100     -5213977    44.996884    22.336258   -41.198041    1013.7988    16.220782    2088.4256     34343344    299.54371 
    4200     -5213948    51.426324    26.996177   -36.016794    1013.7981     16.22077    2088.4241     34343270    299.92054 
    4300   -5213752.4    14.509381    4.4177036   -57.200216    1013.8271    16.221234    2088.4839     34346220    300.59516 
    4400   -5213907.5    26.510797    1.2540516   -64.661845    1013.8123    16.220997    2088.4534     34344715    299.92459 
    4500   -5214053.6      32.1153    29.643375    -40.56043    1013.7895    16.220632    2088.4064     34342396     299.9074 
    4600   -5213815.7     24.95588    7.1339403   -61.468625    1013.8204    16.221127    2088.4701     34345539    300.46666 
    4700     -5213817    31.031816   -3.9220137    -70.46312    1013.8197    16.221115    2088.4685     34345460    300.17949 
    4800   -5213974.7    47.288691    39.408007   -46.813845    1013.7879    16.220607    2088.4031     34342235    299.58949 
    4900   -5213869.1    43.134218    20.799529    -47.79237     1013.802    16.220832    2088.4321     34343662    300.12706 
    5000   -5213800.3    21.266698    4.3124695   -73.868725    1013.8199    16.221119    2088.4691     34345488    300.37291 
    5100   -5213944.5    45.149562    28.924945   -65.279885    1013.7924    16.220679    2088.4124     34342691    299.80636 
    5200     -5213944    37.746616    27.398352   -49.306217    1013.7931     16.22069    2088.4138     34342763    299.92297 
    5300   -5213792.4    26.238462   0.68129937   -75.300369    1013.8128    16.221005    2088.4544     34344764    300.41331 
    5400   -5213808.4    44.578536    32.278982   -49.939778    1013.7965    16.220744    2088.4208     34343104    299.67294 
    5500   -5213965.7    46.036567    27.026861   -41.786263    1013.7842    16.220547    2088.3955     34341857    299.78034 
    5600   -5213852.7    29.702449    7.8750861   -68.305279    1013.8059    16.220895    2088.4403     34344066    300.30616 
    5700   -5213797.1     44.01819    1.1205606   -73.411853    1013.8083    16.220932     2088.445     34344301    300.05422 
    5800   -5213889.1    71.005912    41.053613   -43.656334    1013.7821    16.220514    2088.3912     34341647    299.58897 
    5900   -5213906.1    44.319335    10.003879   -65.684476    1013.7894     16.22063    2088.4061     34342382    300.00723 
    6000   -5213802.6     49.26996    14.275455   -83.822915    1013.8008    16.220812    2088.4296     34343541    300.27218 
    6100   -5213933.1    39.769328    16.188097   -81.355357    1013.7841    16.220546    2088.3953     34341846    300.09911 
    6200   -5213925.7     59.22364    35.012644   -60.111918    1013.7757    16.220411    2088.3779     34340992     299.7785 
    6300   -5213787.3    54.612945    28.445883   -80.560883    1013.7908    16.220653    2088.4091     34342529    300.03528 
    6400   -5213854.4    45.868548    20.472499   -86.921963    1013.7845    16.220553    2088.3962     34341891    300.11906 
    6500   -5213962.4    58.483758    34.366384   -80.247202    1013.7671    16.220273    2088.3601     34340113      299.919 
    6600   -5213866.3    50.093826    27.543618   -84.857707    1013.7746    16.220393    2088.3756     34340879     300.0516 
    6700   -5213816.4    26.933854    31.381638   -102.49643    1013.7798    16.220476    2088.3863     34341405    300.22744 
    6800   -5213973.8    48.615182    27.300466   -111.49863     1013.757    16.220111    2088.3393     34339087    300.12659 
    6900     -5213880    82.751424    51.236059   -81.535761    1013.7467    16.219947    2088.3181     34338042    299.75373 
    7000   -5213767.7    58.737781    36.003606   -102.23589    1013.7628    16.220204    2088.3513     34339678    300.00568 
    7100   -5213845.9    56.479407    35.943663   -101.33219    1013.7521    16.220033    2088.3293     34338591    299.90717 
    7200   -5213928.7    70.704327     58.52376   -97.870046    1013.7387     16.21982    2088.3018     34337236    299.85121 
    7300   -5213865.1    51.176774    38.081341   -115.65106    1013.7533    16.220053    2088.3318     34338715    300.23225 
    7400   -5213835.4     60.28935    47.354472   -123.87339    1013.7502    16.220003    2088.3254     34338400    300.12293 
    7500   -5213867.8    79.077055    61.865302   -107.92715    1013.7368    16.219789    2088.2979     34337042    299.62628 
    7600   -5213890.9    60.870663    55.777096   -120.32464    1013.7397    16.219836    2088.3039     34337337    300.02711 
    7700   -5213787.5    64.272549    44.244119    -111.7658    1013.7444    16.219911    2088.3135     34337812    300.05697 
    7800   -5213895.7    66.786909    46.205889   -127.23652    1013.7341    16.219746    2088.2923     34336766    299.94596 
    7900   -5213912.6    94.316219    55.688543   -109.86186     1013.722    16.219552    2088.2674     34335537    299.78355 
    8000   -5213773.4    76.238854    51.850657   -113.47957    1013.7356    16.219769    2088.2953     34336914    299.90635 
    8100     -5213847    48.632597    37.850428   -124.06163     1013.735     16.21976    2088.2941     34336858    300.10037 
    8200   -5213934.2    64.390054    70.912686   -118.84526    1013.7202    16.219523    2088.2636     34335352    299.97069 
    8300   -5213873.5    83.726212    38.694106   -128.73927    1013.7258    16.219614    2088.2752     34335926    300.13433 
    8400   -5213842.7    71.247341    47.000936   -139.56576    1013.7275     16.21964    2088.2787     34336096    300.20244 
    8500   -5213929.2    60.961165    56.467658   -137.55358    1013.7131    16.219409    2088.2489     34334626     300.0408 
    8600   -5213879.8    78.772618    62.625134    -125.7977    1013.7081    16.219329    2088.2387     34334121    299.91405 
    8700   -5213846.6    66.939656    48.931231   -156.82645    1013.7201    16.219521    2088.2633     34335338    300.23057 
    8800   -5213865.2    89.927437    72.667747   -131.74377    1013.7038    16.219261    2088.2299     34333687     299.9179 
    8900   -5213856.9    89.100797    68.469047    -156.6029    1013.7044     16.21927     2088.231     34333743     299.7512 
    9000   -5213859.1    84.774848    60.431206    -151.6115    1013.7052    16.219284    2088.2328     34333831    300.21481 
    9100   -5213884.3    74.436469    60.206006   -163.63821    1013.7075     16.21932    2088.2375     34334064    300.06416 
    9200   -5213920.9    96.116853    70.748527   -142.97122     1013.698    16.219168    2088.2178     34333094    299.93144 
    9300   -5213886.4    69.596388    56.693164   -169.80018    1013.7127    16.219404    2088.2482     34334592    300.26333 
    9400   -5213809.3    74.979158    62.824044    -133.4327     1013.709    16.219344    2088.2406     34334215     300.0239 
    9500   -5213930.4    88.640975     63.72342   -143.35664    1013.6968    16.219149    2088.2155     34332977    299.86997 
    9600     -5213887    82.705653    77.007755    -144.6406    1013.7025     16.21924    2088.2272     34333556    300.07205 
    9700   -5213842.4    69.555714    48.749656   -165.60931    1013.7117    16.219387    2088.2461     34334486    300.28284 
    9800   -5213958.6    92.771813    69.130731    -151.7281    1013.6927    16.219083     2088.207     34332558    300.13752 
    9900   -5213962.8    71.603078    54.896872   -162.78089    1013.6992    16.219188    2088.2204     34333221      300.137 
   10000   -5213811.6    87.334965    70.942519   -164.02824    1013.7022    16.219235    2088.2265     34333520    300.19128 
Loop time of 152.227 on 2048 procs for 10000 steps with 2002000 atoms

Performance: 11.351 ns/day, 2.114 hours/ns, 65.691 timesteps/s
99.9% CPU use with 2048 MPI tasks x no OpenMP threads

MPI task timing breakdown:
Section |  min time  |  avg time  |  max time  |%varavg| %total
---------------------------------------------------------------
Pair    | 23.983     | 52.97      | 59.964     |  62.2 | 34.80
Neigh   | 0.0016115  | 0.64136    | 1.0058     |  12.8 |  0.42
Comm    | 2.0625     | 7.7327     | 26.225     |  90.9 |  5.08
Output  | 0.066764   | 0.1795     | 0.1833     |   0.9 |  0.12
Modify  | 81.888     | 86.749     | 121.83     |  49.2 | 56.99
Other   |            | 3.954      |            |       |  2.60

Nlocal:    977.539 ave 1074 max 0 min
Histogram: 32 0 0 11 21 0 0 32 379 1573
Nghost:    3786.46 ave 4088 max 194 min
Histogram: 32 0 0 11 21 4 28 0 27 1925
Neighs:    68978.5 ave 76575 max 0 min
Histogram: 32 0 0 32 0 0 0 32 484 1468

Total # of neighbors = 141267913
Ave neighs/atom = 70.5634
Neighbor list builds = 164
Dangerous builds = 1
unfix 1

fix            2 all nvt temp 300.0 300.0 0.1

run      10000
Memory usage per processor = 2.12971 Mbytes
Step PotEng Pxx Pyy Pzz Lx Ly Lz Volume Temp 
   10000   -5213811.6    87.334965    70.942519   -164.02824    1013.7022    16.219235    2088.2265     34333520    300.19128 
   10100   -5213841.6    79.741154    55.135578   -174.70857    1013.7022    16.219235    2088.2265     34333520     299.7939 
   10200     -5213845     77.04701    42.432084   -183.06991    1013.7022    16.219235    2088.2265     34333520    299.92776 
   10300   -5213760.9    100.58133    66.958283   -175.11967    1013.7022    16.219235    2088.2265     34333520     299.9822 
   10400   -5213787.5     71.99996    61.216457   -186.27171    1013.7022    16.219235    2088.2265     34333520    300.12351 
   10500   -5213857.3    57.468552    32.557394   -206.38148    1013.7022    16.219235    2088.2265     34333520    299.96019 
   10600   -5213810.2    61.655169    54.100861   -206.30031    1013.7022    16.219235    2088.2265     34333520    299.87626 
   10700   -5213787.1    69.182842      54.2003   -191.53871    1013.7022    16.219235    2088.2265     34333520     300.1537 
   10800   -5213820.8    54.617989    35.023664   -199.47504    1013.7022    16.219235    2088.2265     34333520    299.66858 
   10900     -5213886    49.222452    21.033732   -230.12029    1013.7022    16.219235    2088.2265     34333520    300.13898 
   11000   -5213803.7    48.139693    41.508173    -223.3646    1013.7022    16.219235    2088.2265     34333520    300.40726 
   11100   -5213823.1    42.032302    27.079161   -236.25753    1013.7022    16.219235    2088.2265     34333520    300.39862 
   11200   -5213844.3    30.335535    14.265024   -253.72957    1013.7022    16.219235    2088.2265     34333520    299.95492 
   11300   -5213823.8    29.263957    16.280605   -255.19363    1013.7022    16.219235    2088.2265     34333520    299.80076 
   11400   -5213808.4     46.21265    26.661406   -256.14083    1013.7022    16.219235    2088.2265     34333520    300.28506 
   11500   -5213779.2     27.44464      8.02317   -260.01298    1013.7022    16.219235    2088.2265     34333520    299.84112 
   11600   -5213836.4    18.235493   -9.9128797   -284.75436    1013.7022    16.219235    2088.2265     34333520    300.01588 
   11700   -5213835.9    16.566841   -13.183871   -275.86951    1013.7022    16.219235    2088.2265     34333520    300.18904 
   11800   -5213717.4    33.171302    3.7811133   -270.19091    1013.7022    16.219235    2088.2265     34333520    300.14447 
   11900   -5213831.4   -7.0037679   -2.1140375   -293.55124    1013.7022    16.219235    2088.2265     34333520    300.06139 
   12000     -5213825    2.2711599   -18.376116   -315.30002    1013.7022    16.219235    2088.2265     34333520    299.96255 
   12100   -5213777.8   -4.2025815   -7.6769079   -319.56015    1013.7022    16.219235    2088.2265     34333520    300.30566 
   12200     -5213867   -21.348703   -37.993105   -344.49314    1013.7022    16.219235    2088.2265     34333520    300.16132 
   12300   -5213784.1    -7.509731   -37.072081   -349.13034    1013.7022    16.219235    2088.2265     34333520    299.94733 
   12400     -5213722   -11.143075    -14.99263   -337.13538    1013.7022    16.219235    2088.2265     34333520    300.10917 
   12500   -5213797.2   -30.087885   -47.298045   -347.85917    1013.7022    16.219235    2088.2265     34333520    300.30664 
   12600   -5213775.2   -33.979823   -41.776899   -357.31302    1013.7022    16.219235    2088.2265     34333520    299.81809 
   12700   -5213744.8   -22.108197   -40.049361   -349.30127    1013.7022    16.219235    2088.2265     34333520     300.0122 
   12800   -5213708.8   -14.827429   -32.215583   -360.37495    1013.7022    16.219235    2088.2265     34333520    300.00894 
   12900   -5213834.9   -39.442815   -73.090928   -392.68947    1013.7022    16.219235    2088.2265     34333520    299.97841 
   13000   -5213782.3   -36.691721   -62.434383   -387.46526    1013.7022    16.219235    2088.2265     34333520    300.26013 
   13100   -5213795.7   -47.381568   -78.138963   -404.31719    1013.7022    16.219235    2088.2265     34333520    299.97219 
   13200   -5213853.4   -59.986529   -83.057718    -419.6355    1013.7022    16.219235    2088.2265     34333520    300.02826 
   13300   -5213693.5   -30.390846   -61.851134   -403.52213    1013.7022    16.219235    2088.2265     34333520     299.9142 
   13400   -5213792.8   -72.937747   -85.485424   -433.76578    1013.7022    16.219235    2088.2265     34333520    300.01737 
   13500   -5213777.7   -59.008558   -87.573221   -423.15164    1013.7022    16.219235    2088.2265     34333520    299.79277 
   13600     -5213769    -64.69646   -93.967249   -443.70734    1013.7022    16.219235    2088.2265     34333520    300.10136 
   13700   -5213823.3   -84.611582   -103.12908   -444.84278    1013.7022    16.219235    2088.2265     34333520    300.16474 
   13800   -5213822.3   -71.103934   -108.98156     -456.777    1013.7022    16.219235    2088.2265     34333520      299.767 
   13900   -5213743.5   -69.748407   -90.759779   -439.63854    1013.7022    16.219235    2088.2265     34333520    300.04138 
   14000   -5213708.7   -50.995886   -81.162548   -453.33786    1013.7022    16.219235    2088.2265     34333520    299.86146 
   14100   -5213850.2   -103.13654   -119.19701   -482.68761    1013.7022    16.219235    2088.2265     34333520    299.78645 
   14200   -5213829.3   -94.370072   -118.68298   -493.33673    1013.7022    16.219235    2088.2265     34333520    300.17074 
   14300   -5213733.6   -89.478408   -108.52451   -462.74237    1013.7022    16.219235    2088.2265     34333520     300.1459 
   14400   -5213815.3   -108.62546   -128.36988   -481.24897    1013.7022    16.219235    2088.2265     34333520    300.04762 
   14500   -5213707.7   -91.775325   -111.57607   -475.97716    1013.7022    16.219235    2088.2265     34333520    299.60175 
   14600   -5213792.6   -94.303651   -128.00457   -496.36132    1013.7022    16.219235    2088.2265     34333520    300.25241 
   14700   -5213783.9   -109.99716   -128.10508   -512.80071    1013.7022    16.219235    2088.2265     34333520    300.00414 
   14800   -5213773.3   -122.40516   -134.89826     -520.121    1013.7022    16.219235    2088.2265     34333520    299.71227 
   14900     -5213688   -95.067946   -116.92955   -501.90308    1013.7022    16.219235    2088.2265     34333520    299.98581 
   15000   -5213733.2   -105.21611   -124.17055   -525.29377    1013.7022    16.219235    2088.2265     34333520      299.959 
   15100   -5213791.4   -114.44014   -151.79686   -528.06481    1013.7022    16.219235    2088.2265     34333520     299.8017 
   15200   -5213737.2   -108.59736   -132.59226   -527.43737    1013.7022    16.219235    2088.2265     34333520    299.98209 
   15300   -5213673.9   -91.916327   -126.66305   -522.74149    1013.7022    16.219235    2088.2265     34333520    299.98275 
   15400   -5213794.3   -123.15595   -164.72627   -553.32471    1013.7022    16.219235    2088.2265     34333520    299.94674 
   15500   -5213698.4    -118.2724   -142.85689   -541.39537    1013.7022    16.219235    2088.2265     34333520    299.91929 
   15600     -5213693   -124.48269   -142.45422   -557.95974    1013.7022    16.219235    2088.2265     34333520    300.03658 
   15700   -5213747.8   -127.15528    -168.5238   -572.82245    1013.7022    16.219235    2088.2265     34333520     299.8866 
   15800   -5213825.5   -157.46081    -168.5038   -591.91881    1013.7022    16.219235    2088.2265     34333520    300.03883 
   15900   -5213677.6   -118.20553   -132.41801   -550.37283    1013.7022    16.219235    2088.2265     34333520    300.07316 
   16000   -5213746.5     -117.822   -136.25226   -521.95289    1013.7022    16.219235    2088.2265     34333520    299.94892 
   16100   -5213732.3   -91.250456    -109.1808   -488.15742    1013.7022    16.219235    2088.2265     34333520    299.88265 
   16200   -5213660.3   -40.138492   -49.762191    -404.8528    1013.7022    16.219235    2088.2265     34333520    299.91054 
   16300   -5213799.2   -22.774881   -44.535428   -363.59095    1013.7022    16.219235    2088.2265     34333520    299.89441 
   16400   -5213874.2   -10.995962   -30.008821   -318.31054    1013.7022    16.219235    2088.2265     34333520    300.21991 
   16500   -5213761.9    9.7760808   -5.9727299   -296.22966    1013.7022    16.219235    2088.2265     34333520    300.26683 
   16600   -5213842.5    19.909791   -14.053397   -277.82658    1013.7022    16.219235    2088.2265     34333520    300.05297 
   16700   -5213844.4    19.760119    6.6723854   -247.60115    1013.7022    16.219235    2088.2265     34333520    300.03821 
   16800   -5213784.4    48.254948    35.440121   -221.87369    1013.7022    16.219235    2088.2265     34333520    300.05739 
   16900   -5213810.7    46.793899    31.031416   -201.87315    1013.7022    16.219235    2088.2265     34333520    299.89183 
   17000   -5213866.3     43.34051     24.22757   -200.56563    1013.7022    16.219235    2088.2265     34333520    299.88067 
   17100   -5213798.1     84.09763    37.262721   -168.59981    1013.7022    16.219235    2088.2265     34333520    299.91393 
   17200   -5213838.5    68.215194    37.974994   -188.43529    1013.7022    16.219235    2088.2265     34333520    299.97847 
   17300   -5213855.4    63.514557    45.097132   -199.23802    1013.7022    16.219235    2088.2265     34333520    299.89336 
   17400   -5213924.9    55.022852    25.804564   -182.87365    1013.7022    16.219235    2088.2265     34333520    300.06542 
   17500     -5213799    86.419848    53.633188   -151.58577    1013.7022    16.219235    2088.2265     34333520    300.09233 
   17600   -5213863.2    80.897923    42.057944   -162.06389    1013.7022    16.219235    2088.2265     34333520    299.78237 
   17700   -5213902.1    79.032402    41.981881   -168.97291    1013.7022    16.219235    2088.2265     34333520    300.03689 
   17800   -5213873.6    87.417368    65.620868   -150.82049    1013.7022    16.219235    2088.2265     34333520    300.31304 
   17900   -5213896.3     85.80831    51.725775   -169.45336    1013.7022    16.219235    2088.2265     34333520    299.97709 
   18000   -5213845.1    89.236349    63.906506   -135.84678    1013.7022    16.219235    2088.2265     34333520    299.78974 
   18100   -5213844.8    100.64603    79.934728   -152.68735    1013.7022    16.219235    2088.2265     34333520    300.10747 
   18200     -5213829    103.49278     67.68307   -137.48584    1013.7022    16.219235    2088.2265     34333520    299.81565 
   18300   -5213872.2    98.095421    63.449623   -118.37745    1013.7022    16.219235    2088.2265     34333520     300.0034 
   18400   -5213850.2    109.35215     80.66268   -129.82312    1013.7022    16.219235    2088.2265     34333520    300.02904 
   18500   -5213875.6    96.589401    73.278114   -129.12968    1013.7022    16.219235    2088.2265     34333520    300.19093 
   18600   -5213920.3    94.833103    60.558956   -127.37636    1013.7022    16.219235    2088.2265     34333520    299.86721 
   18700   -5213837.3    119.16188    80.685454   -106.94416    1013.7022    16.219235    2088.2265     34333520    300.20938 
   18800   -5213898.1    103.05173    71.079304    -135.0872    1013.7022    16.219235    2088.2265     34333520    300.15106 
   18900   -5213919.1    106.93576    59.060694   -121.36843    1013.7022    16.219235    2088.2265     34333520    299.99107 
   19000   -5213805.3     127.9997    91.136975   -105.81877    1013.7022    16.219235    2088.2265     34333520     300.2764 
   19100   -5213853.5    123.37856     64.72883   -114.56272    1013.7022    16.219235    2088.2265     34333520    299.97046 
   19200   -5213886.6    106.44666    80.716077   -124.13365    1013.7022    16.219235    2088.2265     34333520    299.93225 
   19300     -5213803    127.62855    92.884553   -98.106425    1013.7022    16.219235    2088.2265     34333520    300.13124 
   19400   -5213829.9    103.77323    98.658856   -99.012622    1013.7022    16.219235    2088.2265     34333520    299.86604 
   19500   -5213854.4     100.5488     101.5194   -110.65392    1013.7022    16.219235    2088.2265     34333520    299.84864 
   19600   -5213830.6    118.22558    92.785039   -122.77144    1013.7022    16.219235    2088.2265     34333520    300.08689 
   19700   -5213837.8    105.39472    92.433272   -114.51145    1013.7022    16.219235    2088.2265     34333520    299.94481 
   19800   -5213916.8    79.400057    87.665456   -122.22861    1013.7022    16.219235    2088.2265     34333520    299.87958 
   19900   -5213830.3    113.47139    93.468026   -103.45412    1013.7022    16.219235    2088.2265     34333520    300.14687 
   20000   -5213791.2    119.01334    95.326041   -110.33108    1013.7022    16.219235    2088.2265     34333520    299.85415 
Loop time of 145.611 on 2048 procs for 10000 steps with 2002000 atoms

Performance: 11.867 ns/day, 2.022 hours/ns, 68.676 timesteps/s
99.9% CPU use with 2048 MPI tasks x no OpenMP threads

MPI task timing breakdown:
Section |  min time  |  avg time  |  max time  |%varavg| %total
---------------------------------------------------------------
Pair    | 23.785     | 52.784     | 57.986     |  62.3 | 36.25
Neigh   | 0.0007782  | 0.30439    | 0.46551    |   9.0 |  0.21
Comm    | 2.0242     | 8.1552     | 25.877     |  87.8 |  5.60
Output  | 0.20716    | 0.30312    | 0.30681    |   0.5 |  0.21
Modify  | 52.409     | 58.031     | 93.13      |  60.0 | 39.85
Other   |            | 26.03      |            |       | 17.88

Nlocal:    977.539 ave 1076 max 0 min
Histogram: 32 0 0 11 21 0 0 32 406 1546
Nghost:    3800.78 ave 4099 max 193 min
Histogram: 32 0 0 6 26 3 29 0 5 1947
Neighs:    68978.9 ave 76239 max 0 min
Histogram: 32 0 0 32 0 0 0 32 408 1544

Total # of neighbors = 141268876
Ave neighs/atom = 70.5639
Neighbor list builds = 78
Dangerous builds = 0
reset_timestep 0
unfix 2

##---------------------------laser
#---------------------- DEFINE Laser GERION and GROUP ----------------
region       R1  block -75  75  INF  INF  INF  5  units box
group        G1 region R1
294976 atoms in group G1
group        G2 subtract all G1
1707024 atoms in group G2


#define     temperature/pressure calculation  group
variable    x1atom atom "x>=0  &&  x<4 &&  z>-40 && z<1"     ##NEW!!!!!!!!!!!!
variable    x2atom atom "x>=-503.11  &&  x<-499.11 &&  z>-40 && z<1"
variable    x3atom atom "x>=0  &&  x<4 &&  z>-20 && z<1"
variable    x4atom atom "x>=-503.11  &&  x<-499.11 &&  z>-20 && z<1"
variable    x5atom atom "x>=196  &&  x<200 &&  z>-40 && z<1"

group       x1atom variable x1atom
159 atoms in group x1atom
group       x2atom variable x2atom
160 atoms in group x2atom
group       x3atom variable x3atom
78 atoms in group x3atom
group       x4atom variable x4atom
85 atoms in group x4atom
group       x5atom variable x5atom
160 atoms in group x5atom


compute      COM1x x1atom com
compute      COM2x x2atom com
compute      COM3x x3atom com
compute      COM4x x4atom com
compute      COM5x x5atom com

compute      COMall all com

#Temperature profile
#variable      Tprofile atom 300*(1+(step/5000)*2.5*exp(z/40))
variable      Tprofile atom 300*(1+(step/5000)*2.5*exp(z/75))

# ------------------------- SETTINGS ---------------------------------
thermo          100
thermo_style    custom step lx pxx pyy pzz temp c_COM1x[1] c_COM1x[2] c_COM1x[3] c_COM2x[1] c_COM2x[2] c_COM2x[3] c_COM3x[1] c_COM3x[2] c_COM3x[3] c_COM4x[1] c_COM4x[2] c_COM4x[3]  c_COM5x[1] c_COM5x[2] c_COM5x[3] c_COMall[1] c_COMall[2] c_COMall[3]

timestep       0.002


compute dispall all displace/atom

# ---------------- Run Laser Material Interaction --------------------
#dump          1 all custom 1000 dump/z1dump.atom id type x y z c_dispall[1]  c_dispall[2]  c_dispall[3] c_dispall[4]
#dump          2 all cfg 100 cfg/*.cfg mass type xs ys zs
#dump_modify   2 element Al

#relax for 2 PS
#fix           1 all nvt temp 300.0 300.0 0.1
#run  1000
#unfix         1

fix           1  all nve
fix           3temp  G1  langevin  v_Tprofile  0  0.1  378411   #TEST ALL
run           5000
Memory usage per processor = 2.50471 Mbytes
Step Lx Pxx Pyy Pzz Temp COM1x[1] COM1x[2] COM1x[3] COM2x[1] COM2x[2] COM2x[3] COM3x[1] COM3x[2] COM3x[3] COM4x[1] COM4x[2] COM4x[3] COM5x[1] COM5x[2] COM5x[3] COMall[1 COMall[2 COMall[3 
       0    1013.7022    119.01334    95.326041   -110.33108    299.85415    1.2403109  -0.90878654   -19.712862    -501.7544   -1.2537652   -18.998514    1.2078966   -1.0631381   -9.3529125   -501.73697   -1.3078218   -9.5057078    197.73814   -1.0671522   -19.093069   -1.0137022   -1.0137022   -1006.1364 
     100    1013.7022    98.943851    98.318129   -114.49113    300.05863    1.2508486  -0.92086656   -19.712267   -501.74738   -1.2135961   -19.006195    1.1700295   -1.0451161      -9.3804   -501.76474   -1.2614601   -9.5373465    197.71767   -1.0750107   -19.108813   -1.0136413   -1.0136806   -1006.1364 
     200    1013.7022    121.04943    86.629764   -127.64943    300.28933    1.2613549  -0.91367343   -19.693625   -501.73812   -1.1360467   -19.077416      1.20048  -0.99814604   -9.3311738   -501.76773   -1.1586934   -9.5905341     197.7121   -1.1108929   -19.192807   -1.0136665   -1.0137208   -1006.1364 
     300    1013.7022    124.40444    110.19344   -93.923006    300.36419    1.2552127  -0.92005612   -19.679835   -501.69106   -1.1526055   -19.118177    1.2049303  -0.98054345   -9.2770803   -501.73314   -1.1015589   -9.6446004    197.68576   -1.1615407   -19.199881   -1.0134299   -1.0139513   -1006.1365 
     400    1013.7022    109.00219    115.04077   -108.17397    300.41579    1.2457533  -0.92045322   -19.705398    -501.6969   -1.1192754   -19.118091     1.202933   -1.0384431    -9.338392   -501.73029   -1.0914114   -9.6180646    197.71522   -1.1465886   -19.166411   -1.0132477   -1.0140845   -1006.1369 
     500    1013.7022    130.47984    113.59578   -97.433774    300.56747    1.2251522  -0.90116952   -19.691375   -501.67433   -1.1375266   -19.131086    1.2138741   -1.0460041   -9.2499814   -501.64859   -1.1137402   -9.6400122    197.70612   -1.1508169   -19.128231    -1.013205   -1.0142098   -1006.1373 
     600    1013.7022    120.85765     121.0545   -95.307931    300.84002    1.2273581  -0.85500609   -19.640606    -501.6503   -1.1933782   -19.119726    1.2229431  -0.98807469   -9.2145614   -501.64996   -1.1902333   -9.6236746    197.75734   -1.1303019   -19.137675    -1.013195   -1.0142455   -1006.1375 
     700    1013.7022    141.15759     127.7262   -83.119524     300.8914     1.211519  -0.87185589   -19.651678   -501.63711   -1.1745789   -19.074329    1.1802487  -0.98896733   -9.2076389   -501.65793   -1.1533035   -9.5931351    197.78723   -1.1426371   -19.147073   -1.0132631   -1.0140848   -1006.1376 
     800    1013.7022    150.73181    140.10003   -53.897526     300.6746    1.1775078  -0.84303224   -19.696716    -501.6244   -1.1535251   -19.075959    1.1597851   -0.9989367   -9.2691606   -501.62051   -1.1465423   -9.5682641    197.75911   -1.1442361   -19.111098   -1.0130353   -1.0138941   -1006.1379 
     900    1013.7022     138.3243    135.21385   -56.847595    301.05453    1.2307655  -0.84323409   -19.662757   -501.65166   -1.1062485   -19.121876    1.2228792  -0.97734515   -9.2272791   -501.63779   -1.1035307   -9.6671094    197.74945   -1.1431439    -19.13671   -1.0127067   -1.0138946    -1006.138 
    1000    1013.7022    164.13651    130.83567   -59.254328     301.0021    1.2070489  -0.81521122   -19.620599   -501.64665   -1.1152561   -19.156039    1.1812715   -0.9340961   -9.1727338    -501.6085   -1.1422385   -9.7078081    197.70754   -1.1268124   -19.213418   -1.0127758    -1.013951   -1006.1381 
    1100    1013.7022    174.27093     144.4488   -69.352189    300.87768     1.185453  -0.83443957   -19.613753   -501.64755   -1.1443648   -19.153363    1.2167553  -0.94955629   -9.1706171   -501.63807   -1.1775423   -9.6944987    197.72484   -1.0819411   -19.230597   -1.0128654   -1.0140846   -1006.1381 
    1200    1013.7022    161.77369    134.73131   -73.295306    301.36836     1.209128  -0.95518523    -19.59703   -501.63212    -1.113473   -19.166574    1.2407531   -1.0789524   -9.1422981   -501.61917   -1.1502135    -9.674625    197.71863   -1.1105141   -19.214847   -1.0128752   -1.0141347   -1006.1381 
    1300    1013.7022    168.03199    148.90399   -51.980442     301.2402    1.1814675  -0.93698185   -19.588456   -501.65346   -1.0683181   -19.086271    1.1620178   -1.0665081   -9.1409964   -501.63694   -1.1084903   -9.6063213    197.74191   -1.0538359   -19.247761   -1.0127809   -1.0139496   -1006.1383 
    1400    1013.7022    160.13717    144.53683   -53.001734    301.66763    1.1939643   -0.9830928   -19.571231   -501.64133   -1.0575692   -19.082338    1.1141422   -1.1085701   -9.1216275   -501.61775   -1.0865923   -9.5729643     197.7419   -1.0795492   -19.277285   -1.0128769   -1.0137653   -1006.1384 
    1500    1013.7022    178.31552      152.647   -21.387727    301.59778    1.1510618  -0.95859678   -19.592173   -501.63428   -1.0596179   -19.140596    1.0759822   -1.0868887   -9.1102389   -501.63018   -1.0690113   -9.6286126    197.73046   -1.0660697   -19.308223   -1.0130488   -1.0136087   -1006.1385 
    1600    1013.7022    185.41215    158.42992   -24.790363    301.64834    1.1878587  -0.94582038   -19.568699   -501.62019   -1.0336948   -19.172653    1.1415994   -1.0290707   -9.0984919   -501.61738   -1.0718381   -9.6833457    197.73064   -1.0525109    -19.28861   -1.0130751   -1.0133541   -1006.1385 
    1700    1013.7022    197.79149    168.85907   -25.640626    301.87748     1.190808  -0.89709425   -19.609444   -501.62362   -1.0510308   -19.127514    1.1379828   -1.0083696   -9.1871422   -501.59257   -1.0809091   -9.6511994    197.74994   -1.0006263   -19.361963   -1.0132524   -1.0130586   -1006.1385 
    1800    1013.7022    205.32709    183.78546    -17.94418    302.05333    1.2080528   -0.9018612   -19.628114   -501.63151   -1.0277505   -19.123214    1.0854743   -1.0712097    -9.147893   -501.61953   -1.0289276   -9.6541835    197.78443   -1.0011972   -19.380899   -1.0131685   -1.0126959   -1006.1386 
    1900    1013.7022    209.53579    183.96598   -23.794664    302.14636    1.2291832  -0.92717538   -19.600163   -501.63566   -1.0375823   -19.126806    1.1806473   -1.0666191   -9.1177938   -501.62853   -1.0289776   -9.6648759    197.85637    -1.009986   -19.305649   -1.0132161   -1.0123415   -1006.1389 
    2000    1013.7022    213.50597    207.79034   -1.4061509    302.13172    1.2143414  -0.90443885   -19.648684   -501.60892   -1.0153723    -19.13573    1.1411406    -1.022477   -9.1584543   -501.57438   -1.0183279   -9.6409314    197.85473  -0.97400679   -19.319791    -1.013381    -1.012254   -1006.1394 
    2100    1013.7022    221.44802    208.16021   -1.4335862    302.25801    1.2386055  -0.88889758   -19.587516   -501.59054   -1.0467643    -19.14999    1.2088827   -1.0190098   -9.0921938   -501.55352   -1.0262442   -9.6750185    197.84874   -1.0519629   -19.328742   -1.0135393     -1.01204   -1006.1397 
    2200    1013.7022    233.86524    196.04156   -1.6241818    302.41309      1.18761   -0.8729247   -19.634747   -501.60465   -1.0312991   -19.222511    1.1757418   -1.0145193   -9.1566412    -501.5838    -1.035078   -9.7573712     197.8781   -1.0396121   -19.271431   -1.0138067   -1.0118664   -1006.1399 
    2300    1013.7022     253.1561    208.13275    16.803281    302.39982    1.2379368  -0.81066652   -19.577632   -501.59326  -0.98733196   -19.192758    1.2049308  -0.94917827   -9.1136133   -501.52593   -1.0007741   -9.7156995    197.91413   -1.0556699   -19.325594   -1.0141553   -1.0116034     -1006.14 
    2400    1013.7022    243.06473    215.83642    9.2442333    302.78266    1.2419655  -0.82236435   -19.570778   -501.63565  -0.99136725   -19.170583    1.1843236  -0.98964929   -9.0998672   -501.58678  -0.98620643   -9.6851842    197.96545   -1.0748353   -19.310484   -1.0143606   -1.0114499   -1006.1403 
    2500    1013.7022    267.87359    238.41415    24.534535    302.59148    1.1993777  -0.87261206   -19.577137   -501.63961  -0.99568624   -19.101728     1.156434   -1.0331735   -9.1574668   -501.60936   -1.0269037   -9.6308017     197.9757   -1.0971944   -19.255955   -1.0143869   -1.0114257   -1006.1404 
    2600    1013.7022     263.8541    245.29589    38.507177    302.89377    1.2378784  -0.90801541   -19.585058   -501.65924   -1.0079192   -19.087997    1.2189719   -1.0904306   -9.0881517   -501.65464   -1.0329757   -9.6016969    197.98954   -1.0387485   -19.305933   -1.0144782   -1.0114584   -1006.1406 
    2700    1013.7022    272.15562    243.59547    36.440644     303.1253    1.2592335  -0.92807824   -19.562476   -501.69769  -0.98708151   -19.074989    1.2576892   -1.0582905   -9.0202669   -501.73204  -0.96055096   -9.6068055    198.00449   -1.0883769   -19.337195   -1.0145375   -1.0113458   -1006.1407 
    2800    1013.7022    289.99992    264.05195    74.458492    303.11424    1.2390185  -0.92561427   -19.552219    -501.7373  -0.93767682    -19.09404    1.2102964   -1.0550835   -9.0408666   -501.76625  -0.92707741   -9.5744938     198.0147   -1.1331889    -19.29733   -1.0145417   -1.0112073   -1006.1408 
    2900    1013.7022    311.33818    267.51492    74.457377    303.13435    1.2395544  -0.91130233   -19.564315   -501.78773  -0.94257771    -19.11036    1.2294629   -1.1019012   -9.0003974   -501.80656  -0.91229428   -9.5984649     198.0478   -1.1002346   -19.291961   -1.0145841   -1.0110491   -1006.1411 
    3000    1013.7022    301.82005    276.70013    79.402805    303.28648    1.2475651  -0.88782658   -19.529614   -501.81025  -0.99669111   -19.067361    1.2050894   -1.0956681   -9.0300802    -501.8111   -1.0256137   -9.5731394    198.04708   -1.1141064   -19.286351   -1.0144916   -1.0109153   -1006.1414 
    3100    1013.7022     329.5452    283.91213    98.498177    303.36919    1.2657378  -0.84003616   -19.505831   -501.82946  -0.94858856   -19.061647    1.2443343   -1.0119715   -8.9853978   -501.79698  -0.99811494   -9.5388715    198.07517   -1.0886086   -19.332597   -1.0143041   -1.0106953   -1006.1414 
    3200    1013.7022    336.38127     290.3735    90.048462    303.41747    1.2399276  -0.86796815   -19.452396   -501.83906  -0.95591743   -19.093231    1.2312958   -1.0566841   -8.8976319   -501.78147  -0.97615346   -9.6071227    198.07166   -1.0658807   -19.349737   -1.0141684   -1.0104555   -1006.1415 
    3300    1013.7022    323.30957    282.14025    88.420656    303.56906    1.2389285  -0.85229405   -19.372037   -501.83746  -0.96672295   -19.167212    1.1832061   -1.0121876   -8.8378874   -501.80463  -0.96154484   -9.6723613    198.11105   -1.0858677    -19.33932   -1.0139852   -1.0105209   -1006.1418 
    3400    1013.7022    323.44682     288.2552    95.197593    304.07988    1.1829161  -0.88040777   -19.402147   -501.84759  -0.99686428   -19.205519    1.1357606    -0.965935   -8.8609697   -501.81897  -0.98471743   -9.7375465    198.09426   -1.0965998   -19.349151   -1.0140245   -1.0106937   -1006.1422 
    3500    1013.7022    334.37733    305.55432    115.29657    304.07349    1.1421974  -0.89614459   -19.436588    -501.8125  -0.98191613   -19.244291    1.0967326   -1.0434089   -8.8386436    -501.8185  -0.95704078   -9.7813331    198.08838   -1.0790693   -19.297571   -1.0139193   -1.0104646   -1006.1429 
    3600    1013.7022    350.50141     308.5126      104.336    303.97781    1.1886954  -0.96013227   -19.487381   -501.78575  -0.99307524   -19.285199    1.1330777   -1.0702651   -8.8886406   -501.80295  -0.96028214   -9.8384728    198.06387   -1.1410136   -19.283838   -1.0139372   -1.0105454   -1006.1434 
    3700    1013.7022    359.02325    320.85199    134.35501    304.16862    1.1821721  -0.97320344   -19.482153   -501.72065  -0.98642802   -19.300269    1.0830105   -1.1103863   -8.9177874   -501.74979  -0.94552755   -9.8553991    198.09661   -1.1446791   -19.264368   -1.0139636   -1.0107529   -1006.1439 
    3800    1013.7022    363.90177     337.2596    131.63904    304.50924    1.1982465  -0.90050542   -19.423873   -501.72288   -1.0212603   -19.272179    1.1255915   -1.0638799   -8.8695055   -501.75447   -1.0128673   -9.8327042    198.16149   -1.1112212   -19.279778   -1.0138134    -1.010761   -1006.1447 
    3900    1013.7022     370.6327    339.93233    151.80982    304.46435    1.2044675  -0.95825407   -19.380302   -501.71862   -1.0019406   -19.234399    1.1397124   -1.2153837    -8.776879   -501.71588   -1.0276008   -9.7600922    198.17609    -1.099948    -19.30126   -1.0137511     -1.01086   -1006.1452 
    4000    1013.7022    379.12034    336.36132    146.43567    304.55866    1.2700416  -0.99078329    -19.39123    -501.7283  -0.99089187   -19.209941    1.1731889   -1.1832236   -8.7607149   -501.74715   -1.0140197   -9.6761295    198.16367    -1.065369   -19.282603   -1.0138096   -1.0110633   -1006.1457 
    4100    1013.7022    379.34321    346.86099     136.8602    304.70054    1.2414536  -0.96786973   -19.425958   -501.77175  -0.95836745   -19.248981    1.1327504   -1.0446446   -8.7883678    -501.7772  -0.95129181   -9.7285363    198.18503   -1.1060876   -19.220244   -1.0139078   -1.0113161   -1006.1463 
    4200    1013.7022    371.15014    331.84997    146.09377    304.70548    1.2466402  -0.97290506   -19.418249   -501.75081   -1.0164048   -19.267599    1.1154994   -1.1177304   -8.8164902   -501.76081   -1.0115961   -9.7875178    198.21103   -1.1422205   -19.168213   -1.0140671   -1.0114923   -1006.1469 
    4300    1013.7022    400.03706    351.10624    176.00494    304.82445     1.258757  -0.94158904   -19.422761   -501.78124   -1.0790131   -19.272573     1.105163   -1.1138602   -8.8466124   -501.76781   -1.1015589   -9.7838625    198.23521   -1.1287629   -19.132551   -1.0141424   -1.0116085   -1006.1478 
    4400    1013.7022    397.88114    362.24352    183.55787    305.15957    1.2368696  -0.81245152   -19.357244   -501.76422   -1.1287493   -19.221885    1.0820418  -0.97089832   -8.7865417   -501.71537   -1.1214493   -9.7330744    198.29172   -1.1420353   -19.157581   -1.0144312   -1.0115971   -1006.1484 
    4500    1013.7022    404.97077    383.98301    180.89854    305.15638    1.2664428  -0.87866233    -19.26843   -501.79051   -1.0963167   -19.258731    1.1181061   -1.0462994   -8.6540426   -501.77136   -1.0832295   -9.7477018    198.32721   -1.0945855   -19.178397   -1.0146322   -1.0115559   -1006.1491 
    4600    1013.7022    409.84717    381.00642     194.7352    305.41101    1.2630546  -0.89687533   -19.188997   -501.82654   -1.1191106   -19.232903    1.1754054   -1.0561916   -8.5518028   -501.79266   -1.1276478   -9.7252223    198.30995   -1.1307769   -19.121426   -1.0149668   -1.0115633   -1006.1498 
    4700    1013.7022    444.25966    402.05382    219.02499    305.11676    1.2580085  -0.88344112   -19.141192   -501.79564   -1.1728429   -19.170547    1.1992214   -1.0007765   -8.5320796   -501.78196   -1.2141199    -9.700826    198.30477   -1.1060784   -19.174392   -1.0154143   -1.0114994   -1006.1506 
    4800    1013.7022    424.56341    382.33293    209.99941    305.77262    1.2619058  -0.91214981   -19.121545   -501.72608   -1.1861306   -19.109728    1.2181474   -1.0768759   -8.4971415   -501.72982   -1.2225962    -9.646975    198.31253   -1.0714184   -19.166314   -1.0157787   -1.0115398   -1006.1515 
    4900    1013.7022    447.00601    412.03336    234.72904    305.43449    1.2703716  -0.87851775   -19.090315   -501.67554   -1.1952174   -19.094927    1.1776154   -1.0743703   -8.4685023   -501.69205   -1.2303719   -9.6442457    198.33892    -1.103307   -19.154775   -1.0160996   -1.0116783   -1006.1523 
    5000    1013.7022    448.23215    395.95916    221.98265    305.86931    1.2663311  -0.84238161   -19.136109   -501.69408   -1.1579569   -19.109916    1.1795659   -1.0174542   -8.5184157   -501.68693   -1.1429885   -9.6046952    198.32668   -1.0434212   -19.166744     -1.01676    -1.011584   -1006.1533 
Loop time of 69.1301 on 2048 procs for 5000 steps with 2002000 atoms

Performance: 12.498 ns/day, 1.920 hours/ns, 72.327 timesteps/s
99.9% CPU use with 2048 MPI tasks x no OpenMP threads

MPI task timing breakdown:
Section |  min time  |  avg time  |  max time  |%varavg| %total
---------------------------------------------------------------
Pair    | 14.479     | 28.663     | 32.79      |  42.5 | 41.46
Neigh   | 0.0012105  | 0.49268    | 0.76068    |  11.4 |  0.71
Comm    | 4.8575     | 7.3469     | 15.275     |  47.4 | 10.63
Output  | 0.4811     | 0.61483    | 0.8153     |   5.0 |  0.89
Modify  | 0.033846   | 0.36954    | 1.3775     |  52.7 |  0.53
Other   |            | 31.64      |            |       | 45.77

Nlocal:    977.539 ave 1077 max 0 min
Histogram: 32 0 0 8 24 0 0 32 427 1525
Nghost:    3799.23 ave 4098 max 194 min
Histogram: 32 0 0 10 22 0 32 0 3 1949
Neighs:    68995.9 ave 76303 max 0 min
Histogram: 32 0 0 32 0 0 0 32 427 1525

Total # of neighbors = 141303696
Ave neighs/atom = 70.5813
Neighbor list builds = 126
Dangerous builds = 0


variable  com1_x equal "c_COM1x[1]"
variable  com1_y equal "c_COM1x[2]"
variable  com1_z equal "c_COM1x[3]"
variable  com2_x equal "c_COM2x[1]"
variable  com2_y equal "c_COM2x[2]"
variable  com2_z equal "c_COM2x[3]"
variable  com3_x equal "c_COM3x[1]"
variable  com3_y equal "c_COM3x[2]"
variable  com3_z equal "c_COM3x[3]"
variable  com4_x equal "c_COM4x[1]"
variable  com4_y equal "c_COM4x[2]"
variable  com4_z equal "c_COM4x[3]"
variable  com5_x equal "c_COM5x[1]"
variable  com5_y equal "c_COM5x[2]"
variable  com5_z equal "c_COM5x[3]"
variable  comall_x equal "c_COMall[1]"
variable  comall_y equal "c_COMall[2]"
variable  comall_z equal "c_COMall[3]"


fix          2 all print 100 "${com1_x}   ${com1_y}   ${com1_z}  ${com2_x}   ${com2_y}   ${com2_z} ${com3_x}   ${com3_y}   ${com3_z} ${com4_x}   ${com4_y}   ${com4_z} ${com5_x}   ${com5_y}   ${com5_z} ${comall_x}   ${comall_y}   ${comall_z}" file COM.data screen no
#-------------------------- Wave Propagation -------------------------
unfix        3temp
run          1000000
Memory usage per processor = 2.50471 Mbytes
Step Lx Pxx Pyy Pzz Temp COM1x[1] COM1x[2] COM1x[3] COM2x[1] COM2x[2] COM2x[3] COM3x[1] COM3x[2] COM3x[3] COM4x[1] COM4x[2] COM4x[3] COM5x[1] COM5x[2] COM5x[3] COMall[1 COMall[2 COMall[3 
    5000    1013.7022    448.23215    395.95916    221.98265    305.86931    1.2663311  -0.84238161   -19.136109   -501.69408   -1.1579569   -19.109916    1.1795659   -1.0174542   -8.5184157   -501.68693   -1.1429885   -9.6046952    198.32668   -1.0434212   -19.166744     -1.01676    -1.011584   -1006.1533 
    5100    1013.7022    448.76872    401.09821    212.92459    305.78056    1.2621639  -0.82803374   -19.202621   -501.63846   -1.2344162   -19.102903    1.1815384  -0.87549216   -8.5084702   -501.64017   -1.2412409   -9.6071483    198.32152    -1.033611   -19.190595   -1.0171868   -1.0116293   -1006.1542 
    5200    1013.7022     437.8002    403.92038    207.84044    305.56035    1.3965715  -0.79335928   -19.072753   -501.62696   -1.2239909   -19.114869    1.3740748  -0.78231014    -8.371788   -501.63281   -1.2610227    -9.606341     198.3212   -1.0268561   -19.209729   -1.0176137   -1.0116746   -1006.1551 
    5300    1013.7022    421.51116    394.09052    187.56879     305.7072    1.4318191  -0.88666058   -19.064589   -501.62477   -1.2599781   -19.096944    1.4205409  -0.94082219   -8.3643996   -501.62557   -1.3128866   -9.5877541    198.35374   -1.0151714   -19.232083   -1.0180405   -1.0117199   -1006.1561 
    5400    1013.7022    428.96192    378.66078    175.71332    305.66387    1.4506486   -0.9356181   -19.069055   -501.59172    -1.284604   -19.132793    1.4482813   -1.0488488   -8.3282959   -501.55879   -1.2994523    -9.608551    198.40646   -1.0417175   -19.168191   -1.0184674   -1.0117652    -1006.157 
    5500    1013.7022    424.03926    387.75705    177.60966    305.66034    1.3602588   -0.8955929   -18.866144   -501.61677   -1.3183631   -19.135505    1.3027083   -1.0702369   -8.1329853    -501.6078   -1.3411368   -9.6332646    198.43501   -1.0670306    -19.17447   -1.0188942   -1.0118106   -1006.1579 
    5600    1013.7022    402.44489    368.00172    138.02132    305.83755    1.2869813  -0.82286609   -18.738035   -501.60328   -1.2612982   -19.151056    1.1907596  -0.97561784   -7.9315272    -501.5718   -1.3091373   -9.6473484    198.43191   -1.0463061   -19.220958   -1.0193211   -1.0118559   -1006.1588 
    5700    1013.7022    417.15898    371.45184    139.81013     305.6352    1.2912142  -0.90015305   -18.693913    -501.6244    -1.266428   -19.175037    1.2084101   -1.0755127   -7.8777071   -501.58869   -1.2847875   -9.6287628    198.45848   -1.0227553   -19.123762   -1.0197479   -1.0119012   -1006.1597 
    5800    1013.7022    414.99562    365.33071    138.80664    305.65936    1.3217939   -1.0072623   -18.564393   -501.64986   -1.2548003    -19.19714    1.2184496   -1.1754653    -7.777666   -501.60042   -1.3248238   -9.7008561    198.46628   -1.0474362   -19.150974   -1.0201748   -1.0119465   -1006.1606 
    5900    1013.7022    397.94883    367.96676    137.09033     305.6023    1.3021055  -0.95314222   -18.427146   -501.67492    -1.228294   -19.223864    1.2732686   -1.0110176   -7.6856829    -501.6399   -1.2813386   -9.7349284    198.53871   -1.0537853    -19.12252   -1.0206016   -1.0119918   -1006.1615 
    6000    1013.7022    397.68071    366.44155    147.70853    305.67019    1.2592967  -0.94505171   -18.270918   -501.68746   -1.2303368   -19.156564    1.3126216   -1.1014389   -7.5661752   -501.66002   -1.2711915   -9.6609956    198.56097   -1.0780524   -19.141883   -1.0210285   -1.0120371   -1006.1624 
    6100    1013.7022    393.74366    356.88537    140.57327    305.66811    1.2493383   -0.9408336   -18.162115   -501.68639   -1.1958477   -19.214885    1.2792853   -1.1294926   -7.4832305   -501.65727   -1.2071029   -9.6853937    198.58927   -1.1342227   -19.140223   -1.0214553   -1.0120824   -1006.1633 
    6200    1013.7022    411.95514    366.31346    136.55118    305.38852    1.2346894  -0.93314441   -18.030721   -501.70817   -1.1875651   -19.288081    1.2379141    -1.182218   -7.3836207   -501.70885   -1.1671636   -9.8130409    198.60324   -1.1510184   -19.175194   -1.0218822   -1.0121277   -1006.1642 
    6300    1013.7022    396.86819    355.88419    119.85314    305.64003    1.1873786  -0.91374915   -17.878513   -501.72478   -1.1674205   -19.297167    1.1265275   -1.0468426   -7.2445933   -501.73272   -1.1831336   -9.7770004    198.68918   -1.1882267   -19.238245    -1.022309    -1.012173   -1006.1651 
    6400    1013.7022    393.73508    358.67281     119.7536    305.58229    1.2434249  -0.87629247   -17.759232   -501.75739   -1.1273234    -19.34331    1.2039272  -0.90919808   -7.1619265   -501.79083   -1.1021945   -9.8457882    198.76561   -1.1780819   -19.277224   -1.0227359   -1.0122183    -1006.166 
    6500    1013.7022    387.38697    358.45272    112.45306     305.6271    1.2556818  -0.76414345   -17.731831   -501.78909   -1.1627492    -19.36769    1.1723317  -0.81142122   -7.1024894   -501.81666   -1.1421531   -9.8880637     198.8383    -1.112951   -19.276748   -1.0231627   -1.0122636   -1006.1669 
    6600    1013.7022    391.56228    359.81101    130.78855    305.42795      1.25828  -0.86607953   -17.683882   -501.78814   -1.1877656   -19.387413    1.1959291  -0.97056506    -7.020136   -501.77972    -1.156824   -9.8800266     198.8767   -1.0725563    -19.28162   -1.0235896    -1.012309   -1006.1678 
    6700    1013.7022     378.7692    338.78155    99.277094    305.85395    1.1739042  -0.88681339   -17.568699   -501.82561   -1.1780967   -19.387539    1.1406827   -1.0101415   -6.8716276   -501.80739   -1.1905917   -9.8674384     198.9401   -1.0668741   -19.251862   -1.0240165   -1.0123543   -1006.1687 
    6800    1013.7022    371.34105    342.10317    102.55145    305.81499    1.2420047  -0.89764081   -17.380798   -501.84916   -1.1711708   -19.368972    1.2733517   -1.0067088   -6.6921266   -501.83949   -1.2266191   -9.8486553    198.99526   -1.0886277   -19.211945   -1.0244433   -1.0123996   -1006.1696 
    6900    1013.7022    404.07754     349.0631    121.19116    305.62221    1.1756405  -0.85770287   -17.313794   -501.85138   -1.1736506   -19.413005    1.1125902  -0.92024922   -6.5683999   -501.83361   -1.2307244   -9.9051759     199.0501   -1.1309504   -19.240671   -1.0248702   -1.0124449   -1006.1705 
    7000    1013.7022    399.75195    364.63656    114.10358    305.65452    1.1680367  -0.93435953   -17.313869    -501.8541   -1.1458187   -19.334244    1.0845588  -0.97333297   -6.4540195   -501.82209   -1.1800288   -9.8726139    199.12115   -1.1192515   -19.253873    -1.025297   -1.0124902   -1006.1714 
    7100    1013.7022    416.84735    363.33872    121.00573    305.53209    1.1224693  -0.86878617   -17.270443   -501.86359   -1.0970384   -19.290094    1.0151963  -0.96683561   -6.4572371   -501.81442   -1.1154832   -9.7962872    199.12706   -1.0981923   -19.219978   -1.0257239   -1.0125355   -1006.1723 
    7200    1013.7022    395.13959    359.31454    131.09486    305.62634    1.1739002   -0.8693736   -17.268367    -501.8656   -1.0703084   -19.322915    1.0928788   -1.0342216   -6.4725453   -501.82267   -1.0664485   -9.8107877    199.15178   -1.0565573   -19.285895   -1.0261507   -1.0125808   -1006.1732 
    7300    1013.7022    394.74652    361.65952    158.06544    305.56843    1.0897115  -0.86435421   -17.176905   -501.82905   -1.0492242   -19.323655    0.9888137   -1.0264463   -6.4115661   -501.83356   -1.0164163   -9.7833763      199.161   -1.0260359   -19.344822   -1.0265776   -1.0126261   -1006.1741 
    7400    1013.7022    403.76291    348.35695    121.12014    305.90364     1.038885  -0.83467034   -17.252429   -501.86005   -1.0103887   -19.329825   0.91294572  -0.98511755   -6.5203706   -501.89926   -1.0171818   -9.8246283    199.13338   -1.0365444    -19.39362   -1.0270044   -1.0126714    -1006.175 
    7500    1013.7022     407.8437    381.90749    140.14627    305.60848    1.0293977   -0.9069495   -17.298516    -501.8105   -1.0094718   -19.359307   0.92476533   -1.0483343    -6.615434   -501.79315   -1.0004122   -9.8389587    199.14435   -1.0470047   -19.399197   -1.0274313   -1.0127167   -1006.1759 
    7600    1013.7022    402.28893    370.50666    134.93891    305.65172    1.0096287    -0.917231   -17.284014   -501.81344  -0.97953191   -19.428527   0.91304899   -1.0500569   -6.5946093    -501.7838  -0.94773115   -9.9493592    199.09437   -1.0824957   -19.364886   -1.0278581    -1.012762   -1006.1768 
    7700    1013.7022    411.76019    365.30401    138.83098    305.69461    1.0013908   -0.9884297   -17.320751   -501.81389  -0.97330381   -19.450438   0.87267564   -1.1930382   -6.6715498   -501.80833  -0.99665161   -9.9507231    199.04401   -1.0772428   -19.353745    -1.028285   -1.0128074   -1006.1777 
    7800    1013.7022    397.19813      372.288    142.53926    305.78525    1.0698662  -0.93458003   -17.284452   -501.74122  -0.98473055   -19.491658   0.96350786   -1.1209647   -6.6306515   -501.71762  -0.97604101   -9.9876796    199.04339   -1.0020974   -19.349846   -1.0287118   -1.0128527   -1006.1786 
    7900    1013.7022    400.97587    370.00481    140.43965    305.82251    1.0538757  -0.86649978   -17.187211   -501.76188  -0.90522889   -19.455942   0.94455312   -1.0241538   -6.4794121   -501.75691  -0.91593682   -9.9844429    198.98168  -0.94828852   -19.369573   -1.0291387    -1.012898   -1006.1795 
    8000    1013.7022    417.90204    366.53132    160.79282     305.5629    1.0254394  -0.91133134   -17.214405   -501.78901  -0.85589631   -19.451309   0.96229526   -1.1257459   -6.4603551   -501.74743  -0.86196271   -9.9620143    198.96379  -0.97142995   -19.369115   -1.0295655   -1.0129433   -1006.1804 
    8100    1013.7022    403.60306    349.15907    136.42871    306.22317     1.014497  -0.87807905   -17.271449   -501.79562  -0.88494661   -19.468997   0.98591419   -1.0750985   -6.5164728   -501.75163  -0.87368624   -9.9675619    198.97481  -0.99307121   -19.336899   -1.0299924   -1.0129886   -1006.1813 
    8200    1013.7022    427.57157    368.07069     151.7403    305.80583   0.97331163  -0.76520195   -17.325905   -501.72108  -0.90882331   -19.468273   0.93187338  -0.94211233    -6.585179   -501.66901  -0.93070277   -9.9829352    198.93352   -0.9986139   -19.383764   -1.0304192   -1.0130339   -1006.1823 
    8300    1013.7022    441.11896    393.21622    167.45203     305.5663    1.0189466  -0.76345713   -17.338144   -501.68721  -0.88741735   -19.511143     1.015287  -0.83499299   -6.6060996   -501.64788  -0.87235431   -9.9993825    198.91732  -0.94781929   -19.448618   -1.0308461   -1.0130792   -1006.1832 
    8400    1013.7022    430.33515    370.53179     171.4095    305.86894    1.0898673  -0.67821777   -17.265723   -501.70629  -0.90237253   -19.546002     1.061328   -0.6994253   -6.5079997    -501.7412  -0.88081271    -10.01602    198.85209  -0.96827172   -19.498594   -1.0312729   -1.0131245   -1006.1841 
    8500    1013.7022    418.64964    373.48832    172.47558    305.86058     1.176842  -0.72115908   -17.312433   -501.69511  -0.86613761   -19.568233    1.0757005  -0.77861788   -6.6031574   -501.68262  -0.85596462   -10.053708    198.82328  -0.99697726   -19.495117   -1.0316998   -1.0131698    -1006.185 
    8600    1013.7022    426.44039    389.26184    199.77052    305.71315    1.2349594  -0.72475422   -17.234235   -501.72463  -0.88429322   -19.514574    1.1415305  -0.80136237   -6.5511866   -501.69603  -0.88774057   -9.9770615    198.82215   -1.0151795   -19.516432   -1.0321266   -1.0132151   -1006.1859 
    8700    1013.7022    430.26682    387.15133    185.00969    305.70548    1.2399122  -0.69198167   -17.325502   -501.65287   -0.9406688   -19.569091    1.1254789  -0.73753181   -6.6367531   -501.62089  -0.94572918   -10.059219    198.75182   -1.0332826   -19.510544   -1.0325535   -1.0132604   -1006.1868 
    8800    1013.7022    422.30287    386.34833    190.82548     305.8334    1.2678724  -0.69354593   -17.327777   -501.62789  -0.93528235   -19.543557    1.1823819   -0.7078785   -6.6295818   -501.59699  -0.94272982   -10.024114    198.73869  -0.94713036   -19.507765   -1.0329804   -1.0133058   -1006.1877 
    8900    1013.7022    431.72316    387.17942    187.83685    305.86009      1.27972  -0.65985333   -17.384527   -501.62003  -0.92780338   -19.498798    1.2208857  -0.72942919   -6.7243723   -501.60897  -0.96255612   -10.001631     198.6869  -0.86632706   -19.471965   -1.0334072   -1.0133511   -1006.1886 
    9000    1013.7022    418.38527    382.41996     172.6206    306.11838    1.3020032  -0.70177993   -17.457682   -501.64123  -0.93511811   -19.482672    1.2817613  -0.81878737   -6.7704151   -501.63465  -0.97365335   -10.003635    198.62759  -0.90678326   -19.409565   -1.0338341   -1.0133964   -1006.1895 
    9100    1013.7022    443.86135    404.62788    187.87218    305.63579    1.3148518  -0.75409202   -17.634275   -501.61879  -0.88883695   -19.559056    1.3259129  -0.98830078   -6.9876977   -501.61436  -0.88760258   -10.021659    198.63808  -0.88917327   -19.348171   -1.0342609   -1.0134417   -1006.1904 
    9200    1013.7022    438.92472    397.41322      200.657    305.80855    1.1929738  -0.74315913   -17.631358   -501.63864  -0.87161304   -19.582429    1.1848869  -0.99018496   -7.0115239    -501.6178  -0.88453641   -10.037519    198.62603  -0.85946441   -19.319422   -1.0346878    -1.013487   -1006.1913 
    9300    1013.7022    433.05538    390.90337    180.45363    306.02316    1.2427259  -0.75342387   -17.627429   -501.61017  -0.88748979    -19.51372    1.2821183  -0.88228772   -6.9823154   -501.58113  -0.87798396    -9.980452    198.57835  -0.79624813   -19.279857   -1.0351146   -1.0135323   -1006.1922 
    9400    1013.7022    436.23987     383.7137    201.52785    305.85666    1.1975116  -0.82403298   -17.590305   -501.58251  -0.88080613   -19.496806    1.2223591  -0.98473976   -6.9156717    -501.5408  -0.86598621   -9.9677842     198.6265  -0.79347667   -19.289232   -1.0355415   -1.0135776   -1006.1931 
    9500    1013.7022    441.16849    405.40663    178.34915    305.98651    1.2206164  -0.81900227   -17.572404   -501.60507  -0.88166677   -19.494926    1.1890705  -0.98557301   -6.9090763   -501.59428  -0.88087497   -9.9682727     198.6438  -0.83390755   -19.290384   -1.0359683   -1.0136229    -1006.194 
    9600    1013.7022    416.92548    398.42624    191.41432    305.91631     1.205373  -0.70616607   -17.516632   -501.55725  -0.89637955   -19.529703    1.1199215  -0.80086571    -6.882632   -501.57447  -0.91846651   -9.9866346    198.60082   -0.8546474    -19.27135   -1.0363952   -1.0136682   -1006.1949 
    9700    1013.7022    447.05148    394.88035    208.88272    305.69579    1.1519808  -0.66565434   -17.579925   -501.54245  -0.89431096   -19.577736    1.0969016  -0.74214826   -6.9668719   -501.53877  -0.92665423   -10.096638    198.65087  -0.88579587   -19.206688    -1.036822   -1.0137135   -1006.1958 
    9800    1013.7022    442.13659    388.92268    185.26468    305.89445    1.1525365  -0.72910083   -17.562031   -501.53621   -0.9313566   -19.641044    1.0457882  -0.88987255   -6.8474438   -501.49554  -0.94554021   -10.125284    198.63755  -0.93823284   -19.202419   -1.0372489   -1.0137588   -1006.1967 
    9900    1013.7022    431.91214    398.72025    185.72179    305.86891    1.0851615  -0.73547853   -17.531445   -501.53297  -0.88471078   -19.677325    1.0387402  -0.86545828   -6.7849754   -501.51086  -0.91339954   -10.166237    198.63334  -0.89401109   -19.101548   -1.0376757   -1.0138042   -1006.1976 
   10000    1013.7022    423.45963    396.00988    194.40674    305.94507    1.1689427  -0.68153182   -17.515154    -501.5609  -0.84052649    -19.69978    1.0913205  -0.75786382   -6.7582898   -501.54812   -0.8723535   -10.224997    198.64671  -0.84885832   -19.022974   -1.0381026   -1.0138495   -1006.1985 
   10100    1013.7022    435.71034     403.8689    204.16716    305.75407    1.1417408  -0.72038458   -17.511878   -501.60235  -0.86734247   -19.763298    1.0561643  -0.88239442   -6.7610118   -501.56957  -0.87912177   -10.308931    198.67471  -0.87730874   -18.959073   -1.0385294   -1.0138948   -1006.1994 
   10200    1013.7022    445.13077    409.47761    218.86362    305.73387    1.1467758  -0.74441074   -17.544792   -501.60532   -0.8511158   -19.795168    1.0195051  -0.85297852   -6.8789921   -501.58341  -0.85429461   -10.313193    198.65648  -0.86911793   -18.887903   -1.0389563   -1.0139401   -1006.2003 
   10300    1013.7022    457.55162    402.71305    215.97161     305.8402     1.126754    -0.718043    -17.55895   -501.60253  -0.83788999   -19.839826    1.0178738  -0.85553228   -6.8740234   -501.59749  -0.88421142   -10.393386    198.71139  -0.86904896    -18.86539   -1.0393831   -1.0139854   -1006.2012 
   10400    1013.7022    442.29058    414.63755    214.10756    305.89962    1.1298209  -0.74380197   -17.568775   -501.57615  -0.85810791   -19.858198    1.0378299   -0.8877555   -6.8815386   -501.56012  -0.91000322    -10.41865    198.71303  -0.81480053   -18.843634     -1.03981   -1.0140307   -1006.2021 
   10500    1013.7022    446.31339    415.24672    203.23853    306.01878    1.0943648  -0.70608422   -17.585926   -501.61138  -0.87562934   -19.852737   0.99466005  -0.81985166   -6.8629236    -501.5988  -0.92516325   -10.380839    198.69959  -0.78693647   -18.813972   -1.0402368    -1.014076    -1006.203 
   10600    1013.7022    445.34323    431.66808    229.20688    305.83282    1.1115546  -0.75762537   -17.566957   -501.66127  -0.83922372   -19.853786    1.0166376  -0.85839033   -6.9242922   -501.67606  -0.87883699   -10.378978    198.69245  -0.82099944   -18.802364   -1.0406637   -1.0141213   -1006.2039 
   10700    1013.7022    468.66615     438.2394    238.79158    305.67049    1.1535923  -0.75280906   -17.620377   -501.68794  -0.84005757   -19.852063    1.0965459  -0.87038655   -6.9751767    -501.7055  -0.85665585   -10.389755    198.71001  -0.87803716   -18.773075   -1.0410905   -1.0141666   -1006.2048 
   10800    1013.7022    465.79509     429.4044    254.19456    305.74649     1.108692  -0.66476541   -17.650176   -501.66165  -0.83889192   -19.876932    1.0449594  -0.78091129   -6.9698283   -501.69582   -0.8390778    -10.39692    198.73661   -0.8821449   -18.768076   -1.0415174   -1.0142119   -1006.2057 
   10900    1013.7022    457.54212    436.59557    255.47754    305.88231    1.0670115  -0.64456863   -17.656679   -501.67035  -0.93640306   -19.901579    1.0707559  -0.75250788   -6.9962364   -501.71719  -0.90794546   -10.428046    198.73137  -0.81502159   -18.776452   -1.0419443   -1.0142572   -1006.2066 
   11000    1013.7022    452.41979    442.70664    260.59194    305.91189    1.0269513  -0.65126572   -17.647658   -501.64826  -0.91530097    -19.92473    1.0279526  -0.81368819   -6.9811864   -501.69216    -0.923094   -10.448913    198.73006  -0.79973844   -18.771337   -1.0423711   -1.0143026   -1006.2076 
   11100    1013.7022    483.91324    441.05198    250.66906    305.82799    1.0425193  -0.64982527   -17.601573   -501.62844  -0.87177638   -19.872095   0.96065231  -0.77271705   -6.8426755   -501.59539   -0.8988083   -10.348018     198.7045  -0.78672321   -18.815584    -1.042798   -1.0143479   -1006.2085 
   11200    1013.7022    469.80897    427.02614    278.50617    305.90994     1.042467   -0.6263162   -17.615698   -501.66979  -0.88282655   -19.862947    0.9165959  -0.71283842   -7.0219822   -501.64115  -0.85230882   -10.355763    198.68757  -0.80204373   -18.840056   -1.0432248   -1.0143932   -1006.2094 
   11300    1013.7022    470.79051    435.94714    265.16231    306.13021    1.0919731  -0.74264674   -17.593666   -501.68888  -0.90118197   -19.861878   0.95478667  -0.86746157   -7.0260396   -501.64016  -0.87990064   -10.382449    198.65846  -0.82359481   -18.844114   -1.0436517   -1.0144385   -1006.2103 
   11400    1013.7022    491.17617    454.19515    273.97422    305.72829     1.119552  -0.77995578   -17.559052   -501.70431  -0.83545779   -19.914919    1.0279908   -1.0152259   -6.9611973   -501.67705  -0.89567897   -10.428992     198.5656  -0.82140447   -18.828826   -1.0440785   -1.0144838   -1006.2112 
   11500    1013.7022    487.37959    444.41045    283.69627    305.83713    1.1782548  -0.76161009   -17.556061   -501.69392  -0.77661753    -19.92011    1.1342373  -0.94404204   -6.8842327   -501.70656  -0.87489668   -10.403314    198.58949  -0.76100995    -18.89757   -1.0445054   -1.0145291   -1006.2121 
   11600    1013.7022    477.09441     449.5178    284.67417    305.93089    1.1276619  -0.72915595   -17.497449   -501.76007  -0.77983758   -19.969062    1.1560326  -0.82013117    -6.784136   -501.75522  -0.82374687   -10.477835    198.53666  -0.81615735   -18.857339   -1.0449322   -1.0145744    -1006.213 
   11700    1013.7022    484.47392    472.49799    289.31393    305.72627    1.1591671  -0.77370623   -17.531809   -501.75073  -0.76165499   -20.001566    1.1629638  -0.86984958   -6.8731032   -501.73202  -0.76218024   -10.532807    198.51243  -0.83019378   -18.827547   -1.0453591   -1.0146197   -1006.2139 
   11800    1013.7022    475.91556    435.65525    274.66827    305.86453    1.1723984   -0.7128712   -17.487584    -501.7465  -0.77000424   -20.060247    1.1637263  -0.95691908   -6.8455214   -501.74715  -0.77473415   -10.607427     198.5239  -0.83046782   -18.801854   -1.0457859    -1.014665   -1006.2148 
   11900    1013.7022    451.75945    429.87597    240.88155    305.92784    1.1520863  -0.67932057   -17.422003   -501.72927  -0.69284611   -20.060882    1.0933007  -0.88611887     -6.76423   -501.69903    -0.702266   -10.612462    198.51897  -0.77659176   -18.785737   -1.0462128   -1.0147103   -1006.2157 
   12000    1013.7022    447.36347    422.50486     223.8575    305.75914    1.1457526  -0.73312805   -17.465736   -501.70375  -0.69992734   -20.072054    1.0544864  -0.86913318    -6.799279   -501.66112  -0.71794832   -10.567534    198.47986  -0.81477758    -18.77473   -1.0466396   -1.0147556   -1006.2166 
   12100    1013.7022    404.08506    386.53303    171.11979    306.11812    1.0835201  -0.72415236   -17.494652   -501.69333  -0.66387786   -20.054507    1.0112946  -0.88461709   -6.8806796   -501.68048   -0.6515897   -10.527357     198.5116  -0.77334488   -18.800185   -1.0470665    -1.014801   -1006.2175 
   12200    1013.7022     408.7674    393.76322    173.03386    305.60944   0.98794063  -0.67770872   -17.543261     -501.711  -0.63577116   -20.101438   0.90270025  -0.84006609   -6.8710228   -501.71711   -0.6074597   -10.571741    198.51895  -0.81287127   -18.697993   -1.0474933   -1.0148463   -1006.2184 
   12300    1013.7022    401.75802    391.22176    154.57899    305.69601    1.0598542  -0.62182993   -17.579896   -501.73236    -0.622036   -20.097459   0.97471608  -0.81117491   -6.9329327   -501.71245  -0.60698816   -10.595377    198.51981  -0.90253912   -18.668728   -1.0479202   -1.0148916   -1006.2193 
   12400    1013.7022    398.47681    384.51371    158.35659    305.66629    1.0831774  -0.59609635   -17.512226   -501.75839  -0.65428823   -20.131568    1.0511673  -0.76260571   -6.8847481   -501.72801  -0.66231966   -10.611024    198.48983  -0.90186232   -18.679008    -1.048347   -1.0149369   -1006.2202 
   12500    1013.7022    386.18381    366.07918    133.41489    305.73321    1.0725215  -0.51430463    -17.53758   -501.76512  -0.67205327   -20.176186    1.0552829  -0.66560922   -6.8117031    -501.7549  -0.67401701   -10.648502    198.48622  -0.87470187   -18.676134   -1.0487739   -1.0149822   -1006.2211 
   12600    1013.7022    382.69583    359.22907    110.00481    305.81048    1.0790997  -0.47245311   -17.534194   -501.75647  -0.69525323   -20.223507    1.0913747  -0.62263093   -6.8277682   -501.75558  -0.65414183   -10.689631     198.5007  -0.89471162     -18.6825   -1.0492007   -1.0150275    -1006.222 
   12700    1013.7022    377.07092    355.92873    96.702287     305.9183    1.0811024  -0.45484224   -17.537977   -501.72232  -0.64197298   -20.240213    1.1296519  -0.56587787   -6.8584588   -501.69836  -0.61128891   -10.742725    198.47044  -0.87598658   -18.738452   -1.0496276   -1.0150728   -1006.2229 
   12800    1013.7022    379.75042    361.05405    110.65561     305.6908    1.1217595  -0.50086829   -17.535078   -501.74842  -0.62189295   -20.272436    1.1094949  -0.59581934   -6.8849534   -501.71228  -0.60683567   -10.770113    198.51727  -0.80014354   -18.763249   -1.0500544   -1.0151181   -1006.2238 
   12900    1013.7022    382.63412    363.67285    107.18875     305.5506    1.1448445  -0.50872393   -17.475666   -501.69991  -0.65760909   -20.312725    1.1474796  -0.57058361   -6.8347069   -501.65383  -0.63140628   -10.819936    198.53588  -0.82345478    -18.81702   -1.0504813   -1.0151634   -1006.2247 
   13000    1013.7022    359.44995    344.44626     93.97036    305.89673    1.1775454  -0.50897683   -17.429294    -501.6792  -0.71795741   -20.319658    1.0855778  -0.53959927   -6.8253576   -501.62944  -0.73054912   -10.811374    198.54728  -0.84083973   -18.857769   -1.0509082   -1.0152087   -1006.2256 
   13100    1013.7022    370.83656    344.22826    79.011376    305.97537    1.1949242  -0.53350092   -17.286743    -501.7108  -0.74654733   -20.302646    1.0720079  -0.56394147    -6.647191   -501.68416  -0.76353203   -10.789545    198.59731  -0.90161153   -18.833747    -1.051335    -1.015254   -1006.2265 
   13200    1013.7022    368.88213    334.82608    87.190465    305.87809     1.232596  -0.57729284    -17.29595   -501.68644  -0.80263164   -20.320268    1.0882305  -0.71312831   -6.6113672   -501.66155   -0.7971112   -10.821083    198.60138  -0.99880736   -18.845098   -1.0517619   -1.0152994   -1006.2274 
   13300    1013.7022    377.57606    345.08105    91.705038    305.68732    1.2899392  -0.51354528    -17.32063   -501.71754  -0.76150141   -20.339489    1.1891189  -0.65606917    -6.631617   -501.71058  -0.75208839   -10.846471    198.61857  -0.98977087   -18.801949   -1.0521887   -1.0153447   -1006.2283 
   13400    1013.7022     379.6848    331.63084    87.745115    305.72344    1.2995697   -0.4942018   -17.284327   -501.68094  -0.71664561    -20.30359    1.2204501  -0.68571411   -6.6067025   -501.66949   -0.7699897    -10.77623    198.63632  -0.99639622   -18.787253   -1.0526156     -1.01539   -1006.2292 
   13500    1013.7022     375.4269    351.16289    82.714233    305.70825    1.2362287  -0.49088017   -17.293997   -501.72724  -0.72542104   -20.345955    1.2061516  -0.63498951     -6.63111   -501.72206  -0.75917364   -10.854684    198.66671  -0.94847518   -18.737478   -1.0530424   -1.0154353   -1006.2301 
[...]
  999000    1013.7022    424.56617    424.31348    191.26386    306.00262    -3.130428   -1.1785505   -28.454673   -505.84919   -1.6067762   -28.039746   -3.1960853   -1.2994159   -18.039157   -505.81154   -1.5697797   -18.551487    193.48637    -1.249215   -27.991213   -5.2596727   -1.4619561   -1015.1341 
  999100    1013.7022    415.21695    432.40808    198.41221    306.09617   -3.1824103   -1.1948727   -28.510277   -505.85566   -1.6751356   -28.040334   -3.2637507   -1.3171303   -18.065263   -505.81985   -1.6658832   -18.543654    193.49534   -1.2680746   -27.978275   -5.2600996   -1.4620014    -1015.135 
  999200    1013.7022    428.75995    409.15925    211.15393    305.94572   -3.1680806   -1.1684136    -28.50636   -505.85443   -1.6755063   -28.016097   -3.2592486   -1.2558475   -18.143685   -505.82583   -1.7383241   -18.530056    193.50007   -1.2527133   -27.996668   -5.2605264   -1.4620467   -1015.1359 
  999300    1013.7022    435.03577    404.13476    197.53663    306.13182   -3.1605409   -1.1662818   -28.500635   -505.84631   -1.6809063   -28.009324    -3.239866    -1.262279   -18.141518   -505.82109   -1.7038926   -18.539515    193.49733   -1.2581137    -28.06646   -5.2609533    -1.462092   -1015.1368 
  999400    1013.7022    433.56156    429.50417    198.89835    305.89023   -3.2327823   -1.1533468   -28.500791   -505.86586   -1.6656848   -28.039514     -3.30781   -1.2553589   -18.089875    -505.8344   -1.6601553   -18.553124    193.48738   -1.2927582   -28.075539   -5.2613801   -1.4621373   -1015.1377 
  999500    1013.7022    429.93503    407.78511    197.12917    306.00238   -3.2716705   -1.1690014   -28.559272   -505.89502   -1.5600997   -27.993355   -3.3627259   -1.2719662   -18.164444   -505.84447   -1.5794726   -18.465618    193.42368   -1.3252616   -28.076104    -5.261807   -1.4621826   -1015.1386 
  999600    1013.7022    435.53348    410.49615    197.57946    305.94666   -3.2701034   -1.2077668   -28.535415   -505.89008   -1.5177391   -27.968105    -3.352335   -1.3322327   -18.158776   -505.85825   -1.5501409   -18.461307    193.39843   -1.3240054   -28.067642   -5.2622338   -1.4622279   -1015.1395 
  999700    1013.7022    432.32316    420.13185      186.848    306.05617   -3.2566404   -1.2212942    -28.48859   -505.89001    -1.513993   -27.942089   -3.3057772   -1.3685048   -18.042735    -505.8376   -1.5352494   -18.458184    193.37263   -1.3194406   -28.042776   -5.2626607   -1.4622732   -1015.1404 
  999800    1013.7022    433.46449     418.7106    207.61122    305.93729   -3.2207184   -1.1460636    -28.53784   -505.93218   -1.5093319   -27.949683   -3.3024504   -1.2841029   -18.116409   -505.91122    -1.545487   -18.442848     193.3984    -1.325432    -28.04718   -5.2630875   -1.4623185   -1015.1413 
  999900    1013.7022    437.29956    418.74112    193.75836    306.04972   -3.2063363   -1.1604879   -28.463289   -505.97854   -1.5033635   -27.978397   -3.3120237   -1.3109211   -18.095236   -506.00709   -1.5364169   -18.486857    193.37221    -1.308822    -28.04612   -5.2635144   -1.4623638   -1015.1422 
 1000000    1013.7022     444.5919    420.66578    200.54472    305.85304   -3.2181155   -1.2333349   -28.475475   -505.97223    -1.472593    -27.99072   -3.2465098   -1.3755444   -18.091996   -506.01246   -1.5083904   -18.467462    193.43126   -1.2969959   -28.002227   -5.2639412   -1.4624092   -1015.1431 
 1000100    1013.7022    431.15885    407.98818    193.72966    305.86539   -3.2133789   -1.3165419   -28.451271   -505.98279   -1.5004284   -27.953279   -3.2611725   -1.4815273    -18.00088   -506.00912    -1.523446   -18.420388    193.39298   -1.3185338   -28.017179   -5.2643681   -1.4624545    -1015.144 
 1000200    1013.7022    426.17785    405.95161    186.82515     306.0471   -3.2027609   -1.3013721   -28.448949    -506.0171   -1.5165625    -28.00356   -3.2283691   -1.4580446    -18.01079   -506.01288   -1.5312659   -18.502072    193.36231    -1.252017   -28.020607   -5.2647949   -1.4624998   -1015.1449 
 1000300    1013.7022    430.17964    401.37228    181.48367    306.02965   -3.1650887    -1.275183    -28.41211    -505.9524   -1.5254404   -27.967316   -3.1773914   -1.4468891   -17.968747   -505.97221   -1.5248247    -18.50281    193.35614   -1.2428769   -27.960956   -5.2652218   -1.4625451   -1015.1458 
 1000400    1013.7022    430.70675    401.57601    182.26761    305.80635   -3.1798207    -1.308099   -28.376759   -505.98004   -1.5218505   -27.929847   -3.2185542   -1.4596367    -17.93769   -505.98485   -1.5350932   -18.517827    193.36158   -1.3192519   -27.882662   -5.2656486   -1.4625904   -1015.1467 
 1000500    1013.7022    423.68962    399.32905    178.70396    305.96069   -3.2024672   -1.3942018   -28.340859   -505.98979   -1.5116779   -27.903712   -3.2563017   -1.5179222   -17.938701   -506.01104     -1.51316   -18.465188    193.39282   -1.3655554   -27.869187   -5.2660755   -1.4626357   -1015.1476 
 1000600    1013.7022    425.42911    414.32719    184.91748    305.80844   -3.2158332   -1.3997285   -28.398814   -505.99016   -1.5910646   -27.953584   -3.2567851    -1.469494   -18.013087   -506.01449   -1.5936233   -18.471706    193.38885   -1.3593028    -27.85585   -5.2665024    -1.462681   -1015.1485 
 1000700    1013.7022    423.23684    393.63717     178.3083    306.09606   -3.1822834   -1.3915572   -28.396484   -506.03114    -1.605001   -27.979192   -3.2305149   -1.5078654   -17.989148   -506.02439   -1.6173679   -18.457674    193.41117   -1.3651564   -27.842046   -5.2669292   -1.4627263   -1015.1494 
 1000800    1013.7022     422.8518    397.18035    169.71193    305.98324   -3.1874352   -1.3309748   -28.472981    -506.0088   -1.6003894   -27.878798   -3.2360879   -1.4634017   -18.060382   -505.99026   -1.6249658   -18.395652     193.4027   -1.4239583   -27.806659   -5.2673561   -1.4627716   -1015.1504 
 1000900    1013.7022    422.43117    393.74845    183.16999    305.95819   -3.1802886   -1.3402066   -28.452522   -506.02918   -1.5959981   -27.882258   -3.2475804   -1.4579459   -18.066601   -506.00069   -1.6218268   -18.369556    193.42079   -1.4686106   -27.823696   -5.2677829   -1.4628169   -1015.1513 
 1001000    1013.7022    424.09289    392.12824    184.64622    305.95469    -3.236372   -1.3096702   -28.413702    -506.0058   -1.6054302   -27.852353   -3.3177794   -1.4650636   -18.020418   -505.97975   -1.6284521   -18.312776     193.4226   -1.4688532   -27.849412   -5.2682098   -1.4628622   -1015.1522 
 1001100    1013.7022    412.05859    396.78262    163.22946    306.15987   -3.2645421   -1.3170499   -28.460331   -506.00863   -1.5822565   -27.869057   -3.3706368   -1.4815797   -18.006485   -505.99256   -1.6099861    -18.38235    193.43534   -1.4314077   -27.831239   -5.2686366   -1.4629076   -1015.1531 
 1001200    1013.7022     423.2859    398.33876    173.96545    305.92922    -3.219316   -1.2963105   -28.461499   -506.01243   -1.5005216   -27.886654   -3.3060656    -1.421004   -18.089766   -505.95913   -1.5747031    -18.41104    193.39669   -1.4511287   -27.866878   -5.2690635   -1.4629529    -1015.154 
 1001300    1013.7022    419.93093    386.01203    158.21583    306.05966   -3.2061309   -1.3004547   -28.464587   -505.98242    -1.447423   -27.900664   -3.3180204   -1.4657091     -18.0999   -505.98339   -1.4942444   -18.442035    193.40373   -1.5183072   -27.934096   -5.2694903   -1.4629982   -1015.1549 
 1001400    1013.7022    420.66691    384.65011    174.53425    306.06329   -3.1681217   -1.3511321   -28.443599   -506.01076   -1.4190946   -27.875852   -3.2605914   -1.4457844   -18.064475   -506.01098   -1.4528706   -18.372632    193.41806   -1.5748707   -27.977053   -5.2699172   -1.4630435   -1015.1558 
 1001500    1013.7022    419.32933    396.47692    178.69054    305.80094   -3.1587007   -1.3536979   -28.418695   -505.98646   -1.4760762   -27.877801   -3.2567249   -1.4534942    -18.01305   -505.96444   -1.4561494   -18.371169    193.42733   -1.5610476   -27.989304    -5.270344   -1.4630888   -1015.1567 
 1001600    1013.7022    395.99223    371.00345    159.73338    306.22375   -3.1597371   -1.2953431   -28.482903   -505.93613   -1.4883982    -27.86103   -3.2298233   -1.4130096   -18.092693   -505.89699   -1.4144454    -18.39833    193.43204   -1.6170801    -27.97439   -5.2707709   -1.4631341   -1015.1576 
 1001700    1013.7022    410.66545    405.15893    160.87747    305.90207   -3.1519647   -1.3050209   -28.449053   -506.00558   -1.5042015   -27.903339   -3.2172563   -1.4171374   -18.014244   -505.98844   -1.4388982   -18.392664    193.40448   -1.6948196   -27.951939   -5.2711977   -1.4631794   -1015.1585 
 1001800    1013.7022    418.47447    394.37102    166.87816    306.01636   -3.1158731   -1.2721852   -28.433033   -506.06109   -1.5153828   -27.894631    -3.142653    -1.427529   -17.993594   -506.06182   -1.4852371   -18.365507    193.44251   -1.6595379   -27.938564   -5.2716246   -1.4632247   -1015.1594 
 1001900    1013.7022    410.95917     398.0671    185.44984     305.8368   -3.1253315   -1.2504202   -28.418781    -506.0946   -1.4777427   -27.891514   -3.1783856   -1.4250867    -17.97635   -506.09692   -1.4941731   -18.380186    193.43518   -1.6667607   -27.986149   -5.2720514     -1.46327   -1015.1603 
 1002000    1013.7022    418.06359     398.4779    167.26533    305.82531   -3.1084623    -1.203757   -28.434119   -506.13062   -1.4713505   -27.830181   -3.1662128    -1.362277   -18.008992   -506.13266   -1.4420077   -18.378647    193.42019   -1.6886869   -28.031612   -5.2724783   -1.4633153   -1015.1612 
 1002100    1013.7022    410.85479    401.12599    159.65731    306.04446    -3.117664   -1.2509253   -28.489804   -506.12624   -1.5179916   -27.810997   -3.2007358   -1.4065441   -18.083478   -506.13775   -1.4901556   -18.326577    193.47251   -1.7024219   -28.041413   -5.2729051   -1.4633606   -1015.1621 
 1002200    1013.7022    413.18306    382.76914    170.78721    305.97075    -3.111794   -1.3354872   -28.516159    -506.1024    -1.511889   -27.758486   -3.1454177   -1.4463609   -18.116346   -506.11428    -1.540108    -18.25029    193.48282   -1.6512449   -28.031341    -5.273332    -1.463406    -1015.163 
 1002300    1013.7022    424.57787    377.21439     163.6025    306.02503   -3.0805684   -1.3842759   -28.546968   -506.11245   -1.4903832   -27.858205   -3.1281348   -1.4266317   -18.155017   -506.10768   -1.5792565   -18.371541    193.48004   -1.6881727   -28.075533   -5.2737588   -1.4634513   -1015.1639 
 1002400    1013.7022    412.37886    394.99582    157.20521    305.97778   -3.1198605   -1.4595954   -28.507321   -506.12509   -1.4845526   -27.903074   -3.1419339   -1.5342367   -18.144261   -506.11236   -1.5238008   -18.403694    193.49151   -1.6490028   -28.092589   -5.2741857   -1.4634966   -1015.1648 
 1002500    1013.7022    409.18281    402.75982    169.30628    305.76085   -3.1019054   -1.4994362   -28.474657   -506.12339   -1.4590941   -27.883784   -3.1438502   -1.6001596   -18.116919   -506.10864   -1.5124312   -18.395945    193.50517   -1.6169189   -28.064328   -5.2746125   -1.4635419   -1015.1657 
 1002600    1013.7022    396.38806    396.52181    143.33569    305.91141   -3.1123575   -1.4782011   -28.486925   -506.15204   -1.4998004   -27.868944   -3.1756507   -1.6089876   -18.085418   -506.15707   -1.5506766   -18.392909    193.44455   -1.5697749   -28.133202   -5.2750394   -1.4635872   -1015.1666 
 1002700    1013.7022    393.22163    378.39955    130.23952    305.89598   -3.1130665   -1.4275537   -28.486623   -506.14597   -1.4512665   -27.877001   -3.1778808   -1.5716894   -18.056595   -506.14072    -1.510738   -18.381504    193.44201   -1.5727955   -28.101797   -5.2754663   -1.4636325   -1015.1675 
 1002800    1013.7022    394.43868    378.21017    134.20454    306.03102    -3.100511   -1.4061451   -28.507323   -506.14783   -1.4899235   -27.920274   -3.1664329   -1.5591487   -18.072966   -506.13742   -1.5194273   -18.417441    193.41922   -1.5619113   -28.028921   -5.2758931   -1.4636778   -1015.1684 
 1002900    1013.7022    390.11664    386.94287    117.58845    306.02094   -3.0916275   -1.3908532   -28.516576    -506.1119   -1.4809676   -27.967078   -3.1706527   -1.5513886   -18.097734   -506.09297   -1.5027268   -18.477144    193.38377   -1.6210641   -27.986085     -5.27632   -1.4637231   -1015.1693 
 1003000    1013.7022    394.56926    376.66366    128.55341    305.87881   -3.0938464     -1.41504   -28.523485   -506.09256   -1.4202809   -27.952817   -3.1422707   -1.5821105   -18.111997   -506.05635   -1.4142562   -18.453167    193.38112   -1.6463906   -28.021053   -5.2767468   -1.4637684   -1015.1702 
 1003100    1013.7022    369.64692    350.76444    110.64717     306.3809   -3.1368045   -1.4041219   -28.509897   -506.10814   -1.3767036   -27.941745   -3.1828866   -1.6070496    -18.10586   -506.05046   -1.3274626   -18.429507    193.34423   -1.6119644    -28.03182   -5.2771737   -1.4638137   -1015.1711 
 1003200    1013.7022    397.38558    377.88059    132.32183     305.8337   -3.1555529   -1.4283716   -28.451282   -506.12133   -1.3837729   -27.979174   -3.1989728   -1.6263827   -18.058401   -506.10739   -1.3304616   -18.482176    193.36891   -1.6216455   -28.048564   -5.2776005    -1.463859    -1015.172 
 1003300    1013.7022    397.83923    376.57931    126.87437    305.87832   -3.1817119   -1.4349102   -28.361059   -506.12672     -1.43747   -27.945228   -3.2053601   -1.6220963   -17.953754   -506.11696   -1.4000806   -18.449133    193.33788   -1.5172492   -28.013992   -5.2780274   -1.4639044   -1015.1729 
 1003400    1013.7022     393.7775    368.64797    131.28374    305.92682   -3.1765805    -1.442037   -28.420163   -506.14668   -1.4590942   -27.933784   -3.2426755   -1.5759164   -18.049329   -506.14794   -1.4710786   -18.442849    193.34058   -1.5434758   -28.001482   -5.2784542   -1.4639497   -1015.1738 
 1003500    1013.7022    395.17296    371.30112    135.78561    305.90457    -3.104625   -1.5173764   -28.427563   -506.13302   -1.4790684   -27.904121   -3.1704257   -1.6126371    -18.01185    -506.1463   -1.4661963   -18.433627    193.34635   -1.5787854   -27.914553   -5.2788811    -1.463995   -1015.1747 
 1003600    1013.7022    388.51234    362.02363    130.38613    306.05184   -3.1431179   -1.5527194   -28.465774   -506.15764   -1.4685214    -27.91614   -3.1887615   -1.6733029   -18.019735   -506.14807    -1.524857   -18.431779     193.3765   -1.6156261   -27.884851   -5.2793079   -1.4640403   -1015.1756 
 1003700    1013.7022    381.58187    382.45002    126.06008      305.956   -3.1539777   -1.5389517    -28.42489   -506.14828   -1.4783082   -27.903747   -3.2199101   -1.6512309   -17.954834   -506.15769   -1.5286435   -18.391437    193.41495   -1.6492659   -27.956302   -5.2797348   -1.4640856   -1015.1766 
 1003800    1013.7022    393.94359     382.0306    128.93409    305.76872   -3.1394143   -1.4869911   -28.388147   -506.16787   -1.4676756   -27.865716   -3.1939654   -1.6123239   -18.002149   -506.17763    -1.488695   -18.400285     193.4236   -1.6855025   -27.906686   -5.2801616   -1.4641309   -1015.1775 
 1003900    1013.7022    367.56253    383.11457    120.23666    306.04576   -3.1581493   -1.4975594    -28.36726   -506.14179   -1.4932798   -27.863107   -3.2057174    -1.658328   -17.955649   -506.13253   -1.5411084   -18.332708    193.38878   -1.7445019   -27.916389   -5.2805885   -1.4641762   -1015.1784 
 1004000    1013.7022    386.29764    376.19392    127.06344    305.95318   -3.1542289   -1.5121665   -28.362436   -506.11248   -1.4713264   -27.854885   -3.2045374   -1.6675276   -17.913268   -506.09559   -1.4966095   -18.337597    193.39688   -1.7393408   -27.925225   -5.2810153   -1.4642215   -1015.1793 
 1004100    1013.7022    402.60387    370.36692    132.46851    305.77456   -3.0752287   -1.4628023   -28.415263   -506.13256   -1.4791366   -27.838583    -3.112535    -1.585993    -18.03451   -506.11051   -1.5116957   -18.316032    193.36702   -1.6946821   -27.913867   -5.2814422   -1.4642668   -1015.1802 
 1004200    1013.7022    394.13696    364.56073    122.26998    305.98926   -3.1466248    -1.411384   -28.424235   -506.13286   -1.4970017   -27.841499   -3.2002914   -1.5191034   -18.033728   -506.14382   -1.5163211   -18.357818    193.33591   -1.6760834     -27.9132    -5.281869   -1.4643121   -1015.1811 
 1004300    1013.7022    387.81954    380.12752    136.50935     305.8784   -3.1051083   -1.3765414   -28.381858   -506.11665   -1.5640722   -27.844645   -3.1800047   -1.4945964   -18.014439   -506.09467   -1.5823764   -18.385348     193.3269   -1.5884299   -27.896489   -5.2822959   -1.4643574    -1015.182 
 1004400    1013.7022    394.21051    377.73996    115.92056    305.97712   -3.1243044   -1.4082067   -28.356972   -506.12453    -1.591193   -27.859497   -3.2152704   -1.4773237   -17.961159   -506.12661   -1.5899678   -18.363222    193.33655   -1.6119726   -27.892532   -5.2827227   -1.4644028   -1015.1829 
 1004500    1013.7022     386.6333    378.96698    123.42147    305.81448   -3.1896114    -1.396638   -28.374197   -506.12004   -1.6497925   -27.894715   -3.2388013   -1.5003083   -17.942045   -506.12861   -1.6618293   -18.387843    193.33237   -1.6248943   -27.917659   -5.2831496   -1.4644481   -1015.1838 
 1004600    1013.7022    393.38921    378.28848    117.95712    305.84901   -3.2190841    -1.429226   -28.412973   -506.08134   -1.5607799   -27.886524   -3.2492995   -1.5949046   -18.005167   -506.05609    -1.578073   -18.377961    193.35491   -1.6006793   -27.902345   -5.2835765   -1.4644934   -1015.1847 
 1004700    1013.7022    395.20523    359.08153    114.76474    306.15235   -3.2245208   -1.3923654   -28.345086   -506.05839   -1.4909127   -27.914254   -3.2415991   -1.5352511   -17.933152   -506.04251   -1.4907204   -18.455136    193.35035   -1.6281236   -27.948093   -5.2840033   -1.4645387   -1015.1856 
 1004800    1013.7022    393.22011    373.99188    107.25289    305.97708   -3.2396522   -1.3957293   -28.310906   -506.04511   -1.5350269      -27.926    -3.265107   -1.5377321   -17.920358   -506.04549    -1.535686    -18.43717    193.37266   -1.6501456   -27.963044   -5.2844302    -1.464584   -1015.1865 
 1004900    1013.7022    371.96479    359.93454    105.87137    306.02938   -3.1787359   -1.3877638   -28.292173   -506.00396   -1.4953408    -27.92878   -3.2316065   -1.5398121   -17.896064   -505.98345   -1.4959099   -18.411814    193.37393   -1.6674075   -27.973297    -5.284857   -1.4646293   -1015.1874 
 1005000    1013.7022    389.43741    362.80679    87.649363    306.03464   -3.1569358   -1.3806763   -28.279521   -505.98563    -1.508145   -27.906154   -3.2254858   -1.5297963   -17.865277   -505.95615   -1.5251551   -18.417969    193.39988   -1.6463501   -27.982844   -5.2852839   -1.4646746   -1015.1883 
Loop time of 14671.7 on 2048 procs for 1000000 steps with 2002000 atoms

Performance: 11.778 ns/day, 2.038 hours/ns, 68.158 timesteps/s
99.9% CPU use with 2048 MPI tasks x no OpenMP threads

MPI task timing breakdown:
Section |  min time  |  avg time  |  max time  |%varavg| %total
---------------------------------------------------------------
Pair    | 2677.4     | 5518.4     | 5916       | 619.6 | 37.61
Neigh   | 0.76429    | 47.505     | 73.686     | 111.5 |  0.32
Comm    | 899.65     | 1220.8     | 3234.6     | 822.8 |  8.32
Output  | 20.583     | 20.772     | 21.327     |   1.0 |  0.14
Modify  | 205.36     | 217.64     | 231.12     |  36.3 |  1.48
Other   |            | 7647       |            |       | 52.12

Nlocal:    977.539 ave 1080 max 60 min
Histogram: 33 31 0 0 0 0 0 0 509 1475
Nghost:    3569.66 ave 3906 max 924 min
Histogram: 64 0 0 0 0 0 0 32 609 1343
Neighs:    68999.6 ave 76566 max 3613 min
Histogram: 64 0 0 0 0 0 0 0 535 1449

Total # of neighbors = 141311156
Ave neighs/atom = 70.585
Neighbor list builds = 12348
Dangerous builds = 0




Total wall time: 4:10:48
