LAMMPS (16 Feb 2016)
# ------------------------ INITIALIZATION ----------------------------
echo both
#log		log.c
units           metal
dimension       3
boundary        p p p
atom_style      atomic
shell         mkdir  cfg
WARNING: Shell command 'mkdir' failed with error 'File exists' (../input.cpp:1126)
shell         mkdir  dump
WARNING: Shell command 'mkdir' failed with error 'File exists' (../input.cpp:1126)


# ----------------------- ATOM DEFINITION & Force Field -------------
# ----------------------- ATOM DEFINITION ----------------------------
lattice         fcc 4.024845358 #origin 0.0 0.0 0.0 orient x 1 -1 0 orient y 1 1 -2 orient z 1 1 1
Lattice spacing in x,y,z = 4.02485 4.02485 4.02485
variable        Lx equal 52
variable        Ly equal 2
variable        Lz equal 208
variable        boxLZ equal 218
region          SYSTEM block -${Lx} ${Lx} -${Ly} ${Ly} -${Lz} 0 units lattice
region          SYSTEM block -52 ${Lx} -${Ly} ${Ly} -${Lz} 0 units lattice
region          SYSTEM block -52 52 -${Ly} ${Ly} -${Lz} 0 units lattice
region          SYSTEM block -52 52 -2 ${Ly} -${Lz} 0 units lattice
region          SYSTEM block -52 52 -2 2 -${Lz} 0 units lattice
region          SYSTEM block -52 52 -2 2 -208 0 units lattice
region          BOX block -${Lx} ${Lx} -${Ly} ${Ly} -${boxLZ} 5 units lattice
region          BOX block -52 ${Lx} -${Ly} ${Ly} -${boxLZ} 5 units lattice
region          BOX block -52 52 -${Ly} ${Ly} -${boxLZ} 5 units lattice
region          BOX block -52 52 -2 ${Ly} -${boxLZ} 5 units lattice
region          BOX block -52 52 -2 2 -${boxLZ} 5 units lattice
region          BOX block -52 52 -2 2 -218 5 units lattice
create_box      1 BOX
Created orthogonal box = (-209.292 -8.04969 -877.416) to (209.292 8.04969 20.1242)
  16 by 1 by 32 MPI processor grid
create_atoms    1 region SYSTEM
Created 346944 atoms

delete_atoms     porosity BOX 0.0005 18226    ##random seed <RAND1>
Deleted 183 atoms, new total = 346761

#---------------------------------------------------------------------------------
pair_style      eam/alloy
pair_coeff  	  * * Al_wkg_MSMSE_2009.set Al

#----------------------------------------------------------------------------------
velocity       all create 300.0 24692 mom yes rot yes dist gaussian         ##random seed <RAND2>

fix             1 all npt temp 300 300 0.1 iso 0.0 0.0 2
run      10000
Neighbor list info ...
  1 neighbor list requests
  update every 1 steps, delay 10 steps, check yes
  max neighbors/atom: 2000, page size: 100000
  master list distance cutoff = 8.365
  ghost atom cutoff = 8.365
  binsize = 4.1825 -> bins = 101 4 215
Memory usage per processor = 0.053688 Mbytes
Step Temp E_pair E_mol TotEng Press Volume 
       0          300   -916612.75            0   -903166.07     2028.077    6048473.6 
   10000    300.09389   -902568.92            0   -889118.04   -17.116783    6175491.9 
Loop time of 61.7072 on 512 procs for 10000 steps with 346761 atoms

Performance: 14.002 ns/day, 1.714 hours/ns, 162.056 timesteps/s
99.9% CPU use with 512 MPI tasks x no OpenMP threads

MPI task timing breakdown:
Section |  min time  |  avg time  |  max time  |%varavg| %total
---------------------------------------------------------------
Pair    | 0.0050688  | 37.19      | 40.554     | 120.6 | 60.27
Neigh   | 0.00014615 | 0.13066    | 0.1475     |   8.7 |  0.21
Comm    | 0.035768   | 6.8194     | 21.09      | 114.3 | 11.05
Output  | 0.000741   | 0.00075151 | 0.00076389 |   0.0 |  0.00
Modify  | 13.913     | 17.027     | 60.977     | 191.9 | 27.59
Other   |            | 0.5392     |            |       |  0.87

Nlocal:    677.268 ave 751 max 0 min
Histogram: 16 0 0 16 0 0 16 0 0 464
Nghost:    3198.06 ave 3584 max 0 min
Histogram: 16 0 0 16 0 16 0 0 0 464
Neighs:    47676.7 ave 53504 max 0 min
Histogram: 16 0 16 0 0 6 10 0 4 460

Total # of neighbors = 24410461
Ave neighs/atom = 70.3956
Neighbor list builds = 47
Dangerous builds = 0
unfix 1

fix            2 all nvt temp 300.0 300.0 0.1

run      10000
Memory usage per processor = 0.053688 Mbytes
Step Temp E_pair E_mol TotEng Press 
   10000    300.09389   -902568.92            0   -889118.04   -17.116783 
   20000    300.17931    -902549.3            0   -889094.59    126.35079 
Loop time of 58.8883 on 512 procs for 10000 steps with 346761 atoms

Performance: 14.672 ns/day, 1.636 hours/ns, 169.813 timesteps/s
99.9% CPU use with 512 MPI tasks x no OpenMP threads

MPI task timing breakdown:
Section |  min time  |  avg time  |  max time  |%varavg| %total
---------------------------------------------------------------
Pair    | 0.0039175  | 36.723     | 39.904     | 118.9 | 62.36
Neigh   | 7.2718e-05 | 0.052222   | 0.059572   |   5.5 |  0.09
Comm    | 0.017375   | 6.9551     | 20.663     | 110.7 | 11.81
Output  | 0.00019693 | 0.000207   | 0.00022411 |   0.0 |  0.00
Modify  | 9.626      | 12.572     | 56.341     | 221.7 | 21.35
Other   |            | 2.586      |            |       |  4.39

Nlocal:    677.268 ave 759 max 0 min
Histogram: 16 0 0 16 0 1 15 0 2 462
Nghost:    3198.42 ave 3595 max 0 min
Histogram: 16 0 0 16 0 16 0 0 0 464
Neighs:    47680.4 ave 54445 max 0 min
Histogram: 16 0 16 0 0 12 4 0 30 434

Total # of neighbors = 24412353
Ave neighs/atom = 70.4011
Neighbor list builds = 19
Dangerous builds = 0
reset_timestep 0
unfix    2
#---------------------- DEFINE Laser GERION and GROUP ----------------
region       R1  block -75  75  INF  INF  INF  5  units box
group        G1 region R1
123744 atoms in group G1
group        G2 subtract all G1
223017 atoms in group G2


#define     temperature/pressure calculation  group
variable    x1atom atom "x>=0  &&  x<4 &&  z>-40 && z<1"     ##NEW!!!!!!!!!!!!
variable    x2atom atom "x>=-209.292  &&  x<-205.292 &&  z>-40 && z<1"
variable    x3atom atom "x>=0  &&  x<4 &&  z>-20 && z<1"
variable    x4atom atom "x>=-209.292  &&  x<-205.292 &&  z>-20 && z<1"
variable    x5atom atom "x>=196  &&  x<200 &&  z>-40 && z<1"

group       x1atom variable x1atom
153 atoms in group x1atom
group       x2atom variable x2atom
160 atoms in group x2atom
group       x3atom variable x3atom
74 atoms in group x3atom
group       x4atom variable x4atom
80 atoms in group x4atom
group       x5atom variable x5atom
160 atoms in group x5atom


compute      COM1x x1atom com
compute      COM2x x2atom com
compute      COM3x x3atom com
compute      COM4x x4atom com
compute      COM5x x5atom com

compute      COMall all com

#Temperature profile
#variable      Tprofile atom 300*(1+(step/5000)*2.5*exp(z/40))
variable      Tprofile atom 300*(1+(step/5000)*2.5*exp(z/75))

# ------------------------- SETTINGS ---------------------------------
thermo          100
thermo_style    custom step lx pxx pyy pzz temp c_COM1x[1] c_COM1x[2] c_COM1x[3] c_COM2x[1] c_COM2x[2] c_COM2x[3] c_COM3x[1] c_COM3x[2] c_COM3x[3] c_COM4x[1] c_COM4x[2] c_COM4x[3]  c_COM5x[1] c_COM5x[2] c_COM5x[3] c_COMall[1] c_COMall[2] c_COMall[3]

timestep       0.002


compute dispall all displace/atom
# ---------------- Run Laser Material Interaction --------------------
#dump          1 all custom 1000 dump/z1dump.atom id type x y z c_dispall[1]  c_dispall[2]  c_dispall[3] c_dispall[4]
#dump          2 all cfg 100 cfg/*.cfg mass type xs ys zs
#dump_modify   2 element Al

#relax for 2 PS
#fix           1 all nvt temp 300.0 300.0 0.1
#run  1000
#unfix         1

fix           1  all nve
fix           3temp  G1  langevin  v_Tprofile  0  0.1  378411   #TEST ALL
run           5000
Memory usage per processor = 0.0537109 Mbytes
Step Lx Pxx Pyy Pzz Temp COM1x[1] COM1x[2] COM1x[3] COM2x[1] COM2x[2] COM2x[3] COM3x[1] COM3x[2] COM3x[3] COM4x[1] COM4x[2] COM4x[3] COM5x[1] COM5x[2] COM5x[3] COMall[1 COMall[2 COMall[3 
       0    421.49374    290.23187    278.96152   -190.14101    300.17931    1.7047803  -0.84667342   -20.004796   -207.71352   -1.0365283   -19.847278    1.7808128  -0.95372526    -9.399825    -207.7478   -1.0380741   -9.7177974    197.61488   -1.0159442   -19.817418   -1.0217761   -1.0134895   -418.52257 
     100    421.49374    264.61859    272.62512    -173.6198    300.15891    1.6883694  -0.91213215   -20.033457   -207.71371   -1.0631578   -19.861851    1.7345516  -0.99589789   -9.3837235   -207.70229   -1.0222409   -9.7012538    197.61279   -0.9813219   -19.818146   -1.0213827   -1.0131155   -418.52348 
     200    421.49374     395.6072    360.47283   -95.110836    300.94227    1.6862127  -0.87621107   -20.008731   -207.70636   -1.0237536   -19.879164    1.7051982  -0.94732585   -9.3972488   -207.67504  -0.98427579   -9.7243336    197.57422  -0.95482254    -19.80029   -1.0207113   -1.0125758   -418.52407 
     300    421.49374    422.78404    379.05895   -52.779773     300.6735    1.6786106  -0.88592524   -20.052515   -207.71824  -0.99982509   -19.850217    1.7234745  -0.94438828   -9.4051203   -207.70525  -0.96218239   -9.7131864    197.54791  -0.95494653   -19.800797   -1.0207119   -1.0127486   -418.52455 
     400    421.49374    468.51226    432.86815   -9.2819727    301.20873    1.6546724  -0.92703105   -20.010092   -207.73508  -0.97657738   -19.832995    1.7248865   -1.0069856   -9.4203675   -207.74355  -0.94757554   -9.7151509    197.54159  -0.98094713   -19.773122   -1.0209468   -1.0134993   -418.52416 
     500    421.49374    476.14844    444.22594    6.6051879    302.17537    1.6743514  -0.93131959   -20.015772   -207.75615  -0.91602982   -19.781509    1.7110589   -1.0219458   -9.4255301   -207.79627  -0.87121622   -9.6601476    197.54288  -0.96789809    -19.78872    -1.021184   -1.0139719   -418.52324 
     600    421.49374    533.65052    518.42406    69.630539    302.49531    1.6716556  -0.89644824   -20.032399   -207.73259  -0.92667908   -19.797923    1.7364624  -0.90988721     -9.45629   -207.74862  -0.94859917   -9.6666773    197.51866  -0.97743117   -19.780483   -1.0214697   -1.0142146   -418.52333 
     700    421.49374    545.00781    485.06667    21.267929    302.94134    1.6809155  -0.91076849   -20.065028   -207.76111  -0.92215742   -19.761306    1.7080372   -0.9634684   -9.4267136   -207.77185  -0.88261286   -9.6154731    197.52086   -0.9780253   -19.812127   -1.0224529     -1.01408   -418.52369 
     800    421.49374    567.13299    556.69359     113.0654    303.79298    1.6654887  -0.89645057   -20.015547   -207.74162  -0.94436761   -19.744905    1.7190045  -0.93856306   -9.3818063   -207.73541   -0.9526337   -9.6030804    197.54421  -0.99944692   -19.772854   -1.0232911   -1.0136295   -418.52416 
     900    421.49374    586.21546    548.12105    86.235077    304.33488    1.6746389  -0.88154264   -20.009355    -207.7239  -0.97584804   -19.722113    1.7368525  -0.89868365   -9.3999704   -207.71639   -1.0113278   -9.5687308    197.52394   -1.0061217   -19.841145   -1.0241018   -1.0141301   -418.52438 
    1000    421.49374    618.97996    592.18419    127.19176    304.61349    1.6759726   -0.8543929   -19.976258   -207.74876   -1.0139521   -19.779218    1.7386648  -0.86380175   -9.3716358   -207.71024   -1.0517596   -9.5878426    197.53858   -1.0611159   -19.790506   -1.0250827   -1.0137047   -418.52438 
    1100    421.49374    664.98432    640.20026    173.01397     305.7633     1.679935  -0.89096647   -20.000864   -207.76599   -1.1138624   -19.760925    1.7593742  -0.84452007    -9.374813   -207.74004   -1.1139018   -9.6110116    197.56459   -1.1127269   -19.765245   -1.0257856   -1.0142736   -418.52507 
    1200    421.49374      677.382    665.80118    198.38124    305.92297    1.6845579  -0.87014026   -20.039721   -207.75083   -1.1600349   -19.728992    1.7405814  -0.88288692   -9.4602946   -207.78064   -1.1556718   -9.6094884    197.57253   -1.1209367   -19.752771   -1.0272534   -1.0146123   -418.52519 
    1300    421.49374    725.86712    716.49304    246.07147    306.67856      1.69951   -0.8750451   -20.018341   -207.71633    -1.157796   -19.691617    1.7504024  -0.88303602   -9.3969478   -207.73991   -1.1396247     -9.52211    197.55858     -1.14104   -19.736379   -1.0281611    -1.014961   -418.52462 
    1400    421.49374     739.7009    719.20387    248.37729    307.72332    1.6672761  -0.91946207   -19.950022   -207.77006   -1.1526983   -19.697546    1.6720651    -1.021632   -9.3263297   -207.74791   -1.1763587   -9.5400584    197.55062    -1.119523   -19.707966   -1.0294961   -1.0152774   -418.52479 
    1500    421.49374    758.33662    709.88934     263.0046    308.50152    1.6739332  -0.93451791   -19.955593   -207.76193   -1.1001904   -19.685875    1.7287833  -0.93500887   -9.3104705   -207.73111   -1.1503442   -9.5269648    197.53227   -1.1101054   -19.633004   -1.0308633   -1.0161091   -418.52416 
    1600    421.49374    771.85775    767.59324    329.86714    307.99341    1.6769774  -0.93941655   -19.978202   -207.75521   -1.0817552   -19.725565    1.7475086  -0.99550621   -9.3717967   -207.73997   -1.1691056   -9.5522846     197.5458   -1.0972745    -19.61259    -1.032162   -1.0161136   -418.52284 
    1700    421.49374    795.34265    763.51657    357.49635    308.79832    1.6823217  -0.96425282   -19.938318   -207.71805   -1.0403301   -19.702047    1.7366027  -0.95558095   -9.3119824   -207.74243   -1.0359521   -9.6146998    197.57399   -1.0475641   -19.679235   -1.0345444    -1.016939   -418.52155 
    1800    421.49374    843.39703    819.71701    403.05853    310.02157    1.7028219   -1.0026412   -19.949175   -207.73786   -1.0551332   -19.668187     1.755938  -0.94710293   -9.3117094   -207.73361   -1.0356085      -9.5436    197.60471   -1.0308633   -19.721015   -1.0360853   -1.0167575   -418.52118 
    1900    421.49374     862.4191    815.51132    389.33488    310.62164    1.6822165    -1.015025   -19.911213   -207.75043   -1.0793055   -19.677712    1.7520244  -0.95178464   -9.2353312   -207.73318   -1.0550274   -9.4683868    197.58703  -0.98889893    -19.76975   -1.0374809   -1.0180352   -418.52042 
    2000    421.49374     892.7941    868.83996    460.01407    311.28392    1.7005957  -0.99384896   -19.913964   -207.69992   -1.0824294    -19.71887    1.7955087  -0.96519252   -9.1729448   -207.66038   -1.0448093    -9.554933    197.58628  -0.95202632   -19.719389   -1.0393877   -1.0187163   -418.51997 
    2100    421.49374    975.34287    944.22592    467.73301    311.93674    1.6804005  -0.90768099   -19.909677    -207.7184  -0.98466485   -19.775274    1.7808167  -0.84751151   -9.2266224   -207.67302  -0.97848688   -9.5877134    197.58759  -0.96623849   -19.683981   -1.0414162   -1.0193781   -418.51983 
    2200    421.49374     989.9079    975.48197    513.86954    312.01332    1.6642528  -0.92453895    -19.93027   -207.70232  -0.99476271   -19.768328    1.7059628  -0.82718116   -9.2868626   -207.65889  -0.98392703   -9.6355942    197.61862   -0.9446929   -19.759751   -1.0429748    -1.019664   -418.51921 
    2300    421.49374    1039.4106    997.82279    532.54605    312.92548    1.6378009  -0.92625283   -19.903006   -207.65397  -0.97766697   -19.741528    1.7274182   -0.8425331    -9.204782   -207.65606  -0.90812096   -9.6069708    197.62052  -0.98983843   -19.772129   -1.0444956   -1.0191415   -418.51899 
    2400    421.49374     1037.269    1004.7163    522.02452    314.07609    1.6737451  -0.98585753   -19.894102   -207.70287  -0.91676054   -19.778553    1.7495775  -0.87636303   -9.1558213    -207.7142  -0.87741033   -9.6382546    197.61438  -0.96927878   -19.786607   -1.0448282   -1.0184628   -418.51911 
    2500    421.49374    1091.7823    1039.8351    556.32524    313.82408     1.660005  -0.98136788   -19.930295   -207.69943  -0.91378485   -19.804857    1.7218804  -0.88637548   -9.1748073   -207.71557  -0.93358403    -9.619179    197.62686   -1.0283874   -19.830867   -1.0457128   -1.0176947    -418.5189 
    2600    421.49374    1093.6461    1017.1246    547.41276    314.15789    1.6906881  -0.97051816   -19.907179   -207.72577  -0.96455164   -19.849011     1.781056  -0.85180369   -9.2292985   -207.73555  -0.97748752   -9.6620799    197.65444   -1.0111046   -19.821124   -1.0449982    -1.016926   -418.51915 
    2700    421.49374     1108.076    1055.0308    591.75683    315.35831    1.6081375  -0.94146082    -19.87297   -207.68883   -1.0006184   -19.853566     1.713555  -0.86609647   -9.2009144   -207.70288   -1.0275378   -9.6889339    197.63341   -0.9602518   -19.846047   -1.0433878   -1.0163582   -418.51849 
    2800    421.49374    1152.9461    1093.0716    607.26934    315.51261    1.5740146   -0.9074966   -19.805291    -207.6742   -1.0560637   -19.849897    1.6829511  -0.89133609   -9.1266244   -207.67989   -1.0766756   -9.7319625    197.66556    -1.003298   -19.882659   -1.0423833   -1.0171639    -418.5179 
    2900    421.49374    1173.3184    1131.1951    635.93011    316.64964    1.6349329  -0.94191383    -19.85116   -207.67452   -1.0620123   -19.827972    1.7098337  -0.91972866   -9.1661533   -207.69459   -1.0779296   -9.6977093    197.67671    -1.020833   -19.858385   -1.0418881   -1.0166952   -418.51755 
    3000    421.49374    1206.9737    1163.8836    648.86972    316.71435    1.6323898  -0.93426339   -19.826124   -207.68502   -1.0456384   -19.834889    1.7292372  -0.90092677   -9.1496342   -207.70669   -1.0491918   -9.7050041    197.66603    -1.054079   -19.874962   -1.0409613   -1.0161104   -418.51706 
    3100    421.49374    1202.0311    1159.4512    668.58763     317.3919    1.6285079  -0.89004455   -19.855387   -207.67751   -1.0685812   -19.790939    1.7362082  -0.83791995   -9.1427761     -207.711   -1.1081958   -9.6507271    197.61408   -1.0551293   -19.833853   -1.0392188   -1.0173713   -418.51714 
    3200    421.49374    1202.2676    1151.3719    655.46586    318.37244    1.6249483  -0.90446828   -19.822116   -207.71024   -1.0157649   -19.727734    1.6530709  -0.83897994   -9.1390386   -207.75939   -1.0432808   -9.5707996    197.64358   -1.0685524   -19.765708   -1.0372429   -1.0178567   -418.51773 
    3300    421.49374    1263.7477    1232.8529    655.41819    319.28123    1.5841419  -0.86107776   -19.798296   -207.72585   -1.0417786   -19.715593    1.6380906  -0.80860091   -9.0803125    -207.7479   -1.0249784   -9.5634089    197.67635   -1.0808971   -19.721267   -1.0354697   -1.0178199   -418.51848 
    3400    421.49374    1247.1437    1209.9078    659.67966    319.56264    1.6408988  -0.82310229   -19.782976   -207.70474   -1.0154242   -19.723129    1.7005981  -0.76203574   -9.0440214   -207.71256   -1.0051091   -9.5173128    197.67603   -1.0622488   -19.688219   -1.0341085   -1.0184585   -418.51961 
    3500    421.49374    1195.5806      1205.04    529.16859     320.1899      1.58093  -0.81343871    -19.76927   -207.68918   -1.0412858   -19.708714    1.6799558  -0.77598226   -9.0539213    -207.6833  -0.99009436   -9.5007424    197.67638   -1.0295392   -19.671291   -1.0320832   -1.0183068   -418.52001 
    3600    421.49374    1247.0732    1196.3092    598.64539    321.04022    1.6454981   -0.8301478   -19.751611   -207.68877   -1.0304082   -19.644295    1.7482055  -0.84769035   -9.0313903   -207.67855   -1.0043974   -9.4652539    197.68214   -1.0737992   -19.667747   -1.0308923   -1.0191201   -418.51972 
    3700    421.49374    1267.5403    1229.4255    568.40683    322.26032    1.6556304  -0.87043228   -19.847036   -207.67267  -0.99437024   -19.595042    1.7489597  -0.83981976   -9.1767212   -207.65041  -0.99037037   -9.4035366    197.64193   -1.0067853   -19.644339   -1.0302778   -1.0206893   -418.52031 
    3800    421.49374    1287.2872    1248.5666    616.75512    322.75702    1.6158015  -0.84300768   -19.808901   -207.67407  -0.99334908   -19.616242    1.7280711  -0.79533369     -9.10011   -207.64927   -1.0119211   -9.4880241    197.65851   -1.0047127   -19.591892   -1.0287477   -1.0208652   -418.52015 
    3900    421.49374    1304.1779    1275.5261    608.27121    322.84519    1.6239448  -0.77760614   -19.843729   -207.71755   -1.0137499   -19.563292    1.7257597  -0.74978126   -9.1609142   -207.65133   -1.0354755   -9.4225657    197.68709  -0.98060515   -19.600203   -1.0276015   -1.0219782   -418.52081 
    4000    421.49374    1322.3822    1297.8408    553.43163    323.87823    1.5993578      -0.7692   -19.809395   -207.70008  -0.97581331   -19.541941    1.6912144  -0.79238078   -9.0733523   -207.65866  -0.99458964   -9.3579705    197.64315  -0.97966062    -19.54679   -1.0265877   -1.0219579   -418.52074 
    4100    421.49374    1372.9247    1314.6636    613.20465    324.43086    1.5860069  -0.81300899   -19.797305    -207.7467  -0.95800197     -19.5583    1.6210701  -0.80893814   -9.0668213   -207.75995  -0.99743818   -9.3385343    197.65339  -0.98981578   -19.568662   -1.0245737   -1.0219823    -418.5216 
    4200    421.49374    1400.0242    1352.5015    658.31612    325.00966    1.6486884  -0.83159248   -19.761444   -207.73171  -0.97419124   -19.558864    1.6529132  -0.86963002   -8.9827973   -207.77081  -0.97584476    -9.379578     197.6727  -0.96093392   -19.565401   -1.0232775   -1.0219183   -418.52325 
    4300    421.49374    1394.6519    1337.4136     643.9284    325.32889    1.6431705  -0.89038002   -19.690515   -207.70797  -0.99192754   -19.558589    1.7021642  -0.93687264   -8.8904168   -207.72433   -1.0243859   -9.3485008    197.65234  -0.90887495    -19.52727   -1.0217457   -1.0218242   -418.52434 
    4400    421.49374    1406.4535    1390.9492    648.27621    325.76036     1.623789  -0.88317617   -19.675165   -207.70491   -1.0206546   -19.594411    1.6906629   -0.8604457   -8.8888013   -207.68473   -1.0387963   -9.4228342    197.68028  -0.87928027   -19.538277   -1.0200572   -1.0222891   -418.52477 
    4500    421.49374    1464.6641    1428.5952    677.50945    326.10103    1.6115619  -0.87896614   -19.700665   -207.70808  -0.94520393   -19.619982    1.6374614  -0.83871557   -8.9108767   -207.69081  -0.89527723   -9.4454322    197.66108  -0.88659952   -19.521474   -1.0199813   -1.0221276    -418.5255 
    4600    421.49374    1465.1222    1421.2998    724.07003    327.18445    1.6556869  -0.77348502    -19.68376   -207.72744   -0.9133929   -19.627974    1.7023138  -0.79559544   -8.9531904   -207.68466  -0.86913096   -9.4460934    197.66453  -0.93855416   -19.494792   -1.0193982   -1.0210723   -418.52695 
    4700    421.49374    1504.7495    1439.2576     713.2308    328.70994    1.6910074  -0.76722999   -19.666103   -207.69062  -0.92841222    -19.60183    1.7745335  -0.81452288   -8.8532063   -207.69038  -0.87508886   -9.4562341     197.6831  -0.96203797   -19.533332   -1.0197833   -1.0205622   -418.52871 
    4800    421.49374    1540.2024    1497.9589    711.37703    328.52019    1.6712492  -0.68989622   -19.622105   -207.70607  -0.90032388   -19.554463    1.7826854  -0.75596758   -8.8182316   -207.69872  -0.89311036   -9.4512554     197.6906  -0.98415659   -19.559966   -1.0206284   -1.0203235   -418.53069 
    4900    421.49374    1582.8606    1514.4248    744.02162    329.80138    1.6278371  -0.70094072   -19.584504   -207.74711  -0.92459077   -19.475279    1.7333133  -0.76422852   -8.7376301   -207.75497  -0.90739636   -9.2917212    197.63872  -0.99935658   -19.517429   -1.0222147   -1.0194215   -418.53179 
    5000    421.49374    1645.2542    1514.8823    760.30285    330.64325    1.6417524  -0.82739241   -19.513815   -207.74315  -0.96024653   -19.382405    1.7444673  -0.85385079   -8.6251929   -207.72431  -0.96947422    -9.203468    197.58124   -1.0297917   -19.518997   -1.0246011   -1.0188251   -418.53422 
Loop time of 29.8959 on 512 procs for 5000 steps with 346761 atoms

Performance: 28.900 ns/day, 0.830 hours/ns, 167.247 timesteps/s
99.9% CPU use with 512 MPI tasks x no OpenMP threads

MPI task timing breakdown:
Section |  min time  |  avg time  |  max time  |%varavg| %total
---------------------------------------------------------------
Pair    | 0.002013   | 18.947     | 20.699     |  85.1 | 63.38
Neigh   | 0.00024414 | 0.30246    | 0.4074     |  13.2 |  1.01
Comm    | 0.062573   | 3.9652     | 11.03      |  75.0 | 13.26
Output  | 0.16495    | 0.26175    | 0.81208    |  24.4 |  0.88
Modify  | 0.030274   | 0.39915    | 0.91075    |  50.3 |  1.34
Other   |            | 6.021      |            |       | 20.14

Nlocal:    677.268 ave 757 max 0 min
Histogram: 16 0 0 16 0 0 16 0 3 461
Nghost:    3175.14 ave 3589 max 0 min
Histogram: 16 0 0 16 0 16 0 0 18 446
Neighs:    47726.8 ave 54501 max 0 min
Histogram: 16 0 16 0 0 12 4 0 23 441

Total # of neighbors = 24436104
Ave neighs/atom = 70.4696
Neighbor list builds = 108
Dangerous builds = 0


variable  com1_x equal "c_COM1x[1]"
variable  com1_y equal "c_COM1x[2]"
variable  com1_z equal "c_COM1x[3]"
variable  com2_x equal "c_COM2x[1]"
variable  com2_y equal "c_COM2x[2]"
variable  com2_z equal "c_COM2x[3]"
variable  com3_x equal "c_COM3x[1]"
variable  com3_y equal "c_COM3x[2]"
variable  com3_z equal "c_COM3x[3]"
variable  com4_x equal "c_COM4x[1]"
variable  com4_y equal "c_COM4x[2]"
variable  com4_z equal "c_COM4x[3]"
variable  com5_x equal "c_COM5x[1]"
variable  com5_y equal "c_COM5x[2]"
variable  com5_z equal "c_COM5x[3]"
variable  comall_x equal "c_COMall[1]"
variable  comall_y equal "c_COMall[2]"
variable  comall_z equal "c_COMall[3]"


fix          2 all print 100 "${com1_x}   ${com1_y}   ${com1_z}  ${com2_x}   ${com2_y}   ${com2_z} ${com3_x}   ${com3_y}   ${com3_z} ${com4_x}   ${com4_y}   ${com4_z} ${com5_x}   ${com5_y}   ${com5_z} ${comall_x}   ${comall_y}   ${comall_z}" file COM.data screen no
#-------------------------- Wave Propagation -------------------------
unfix        3temp
run          1000000
Memory usage per processor = 0.0537109 Mbytes
Step Lx Pxx Pyy Pzz Temp COM1x[1] COM1x[2] COM1x[3] COM2x[1] COM2x[2] COM2x[3] COM3x[1] COM3x[2] COM3x[3] COM4x[1] COM4x[2] COM4x[3] COM5x[1] COM5x[2] COM5x[3] COMall[1 COMall[2 COMall[3 
    5000    421.49374    1645.2542    1514.8823    760.30285    330.64325    1.6417524  -0.82739241   -19.513815   -207.74315  -0.96024653   -19.382405    1.7444673  -0.85385079   -8.6251929   -207.72431  -0.96947422    -9.203468    197.58124   -1.0297917   -19.518997   -1.0246011   -1.0188251   -418.53422 
    5100    421.49374    1579.0177    1470.6987    731.59368    331.01472    1.5715168   -0.9043844    -19.65267   -207.78218   -1.0125495   -19.329854    1.6521496  -0.95666554   -8.8026391   -207.78549   -1.0291064    -9.135355     197.6187   -1.0817879   -19.435077   -1.0270892   -1.0187808   -418.53788 
    5200    421.49374    1572.9224    1500.6389    710.02321    330.50333    1.6171789  -0.82169393   -19.638396   -207.77325   -1.0706352    -19.39249    1.7214882  -0.86163433   -8.8526088   -207.77121   -1.0683488   -9.1587375    197.62142    -1.042186   -19.357974   -1.0295772   -1.0187366   -418.54154 
    5300    421.49374    1541.6878    1447.5317    672.46881    330.65891    1.5882794  -0.80963493   -19.347364   -207.80351   -1.0442064    -19.40176     1.646318  -0.88522977   -8.5602352   -207.77588    -1.027479   -9.1996422    197.60697   -1.0053326   -19.336508   -1.0320652   -1.0186923   -418.54519 
    5400    421.49374    1544.1023    1426.6191    564.60517    330.46153    1.5731965  -0.79367067   -19.202405   -207.79274    -1.094341    -19.37818    1.6812906  -0.77023262   -8.2257839   -207.76484   -1.1342586   -9.1791167    197.60029  -0.98331666   -19.389019   -1.0345532   -1.0186481   -418.54885 
    5500    421.49374     1511.599    1414.9303    531.39481    329.58889    1.5386998  -0.85209336      -19.128   -207.82203   -1.0467935   -19.408253    1.6307319  -0.86150374   -8.0571335   -207.78869   -1.0666174   -9.2030467    197.63805  -0.96549359   -19.446401   -1.0370413   -1.0186038   -418.55251 
    5600    421.49374    1459.3431     1328.543     429.2191    330.49641    1.6638182  -0.82625751    -19.00868   -207.80714   -1.0594883   -19.497851    1.7243133  -0.82079546   -7.8574619   -207.81323    -1.111217   -9.3175384    197.62773  -0.92124431   -19.432519   -1.0395293   -1.0185596   -418.55617 
    5700    421.49374    1397.2346    1303.4964    416.21463     329.9886    1.6877346  -0.77740196   -18.923286    -207.7634   -1.0994475   -19.545205    1.6533657  -0.89904143   -7.8225761   -207.79963    -1.116297    -9.351022    197.63031  -0.99945917   -19.456717   -1.0420173   -1.0185153   -418.55983 
    5800    421.49374    1398.7487    1286.9774     346.0504    330.09596    1.7166574  -0.79524488   -18.918825   -207.76134   -1.1411511   -19.570648    1.7344346  -0.94109589   -7.8941133   -207.80572   -1.1335648   -9.4032333    197.62254   -1.0355306   -19.511163   -1.0445053   -1.0184711   -418.56349 
    5900    421.49374    1398.2748    1237.3538    313.61199    329.81977    1.6634728  -0.78444278   -18.893416    -207.7929   -1.1629518   -19.540063    1.6577539  -0.85358165    -7.934641   -207.79921   -1.1322338   -9.3828294    197.59446   -1.0337045   -19.526904   -1.0469934   -1.0184269   -418.56715 
    6000    421.49374    1343.2894    1252.6455    266.39574    329.86241    1.6639615  -0.80504424   -18.740001   -207.82887    -1.117692   -19.536293    1.7186698  -0.85200406   -7.8400917   -207.83292   -1.1210257   -9.3421262    197.61508   -1.0793638    -19.58005   -1.0494814   -1.0183826   -418.57081 
    6100    421.49374    1358.9577    1256.4203       270.15    329.33015    1.6500966  -0.81936929   -18.594413     -207.821   -1.0763067   -19.549886    1.7787933  -0.82768552   -7.7767383   -207.82585   -1.0982261   -9.3599339    197.58769   -1.1045499   -19.620311   -1.0519694   -1.0183384   -418.57447 
    6200    421.49374    1312.2143    1206.3028    214.56207    330.21733    1.6446574  -0.91263398   -18.544598   -207.82082  -0.99581159   -19.610546    1.7229489   -1.0021456   -7.6811245   -207.81021   -1.0032226   -9.3961679    197.60768    -1.114636   -19.599496   -1.0544574   -1.0182941   -418.57812 
    6300    421.49374     1335.144    1209.4424    210.69901    329.79768    1.6207254  -0.93784378   -18.539517   -207.76532  -0.94009158   -19.712421    1.7480717   -1.0169055   -7.7081586   -207.75675  -0.94600167     -9.49855     197.6451   -1.0710283   -19.574072   -1.0569455   -1.0182499   -418.58178 
    6400    421.49374     1319.417    1181.6551    261.99883    330.28158    1.5996352  -0.96168929   -18.393897   -207.76726  -0.98700409   -19.667075    1.6972131   -1.0158774   -7.5441511   -207.76331  -0.96656266   -9.4903374    197.66737   -1.0987918   -19.575368   -1.0594335   -1.0182056   -418.58544 
    6500    421.49374     1296.256    1169.1161    172.81239    330.17443    1.5639326  -0.95274256   -18.328366   -207.84532  -0.97072983   -19.570176    1.7054911  -0.94069655   -7.4326504   -207.84561  -0.96205897   -9.3940151    197.64477   -1.0465244   -19.637239   -1.0619215   -1.0181614    -418.5891 
    6600    421.49374     1251.703    1182.0511    145.75707    330.77171    1.6413517  -0.87574767   -18.313768   -207.83032  -0.98218137   -19.561113    1.8487972  -0.80680873   -7.3987834   -207.83397  -0.97856551   -9.3285099    197.62433   -1.0798604   -19.665381   -1.0644095   -1.0181171   -418.59276 
    6700    421.49374    1267.6404    1183.9718    166.01136    330.37009    1.6342941  -0.78939528   -18.147145   -207.79236  -0.91175352   -19.554406    1.8711078  -0.76023031    -7.265199   -207.80492  -0.91045771   -9.3090931    197.66562   -1.0895366    -19.62347   -1.0668976   -1.0180729   -418.59642 
    6800    421.49374    1272.9024    1166.9682     189.2601    329.69893    1.6754536  -0.78702584   -18.003214   -207.78102  -0.95383796   -19.587135    1.8875308  -0.78223148   -7.0779338   -207.80391  -0.92439694   -9.3899247    197.68992   -1.0981262   -19.611051   -1.0693856   -1.0180287   -418.60008 
    6900    421.49374    1263.2854    1150.9901    93.192793    330.02681    1.6047812  -0.76095131    -17.90588   -207.74035  -0.98549866   -19.603268    1.8100335  -0.84324739   -6.9208831   -207.77644  -0.97503216   -9.3724293    197.68395   -1.0375503   -19.655708   -1.0718736   -1.0179844   -418.60374 
    7000    421.49374    1251.8089    1173.0957    110.16171    330.28533    1.6358359  -0.66672577   -17.843112   -207.73933   -1.0161332   -19.584081     1.737262  -0.76622633   -6.8483363   -207.75369   -1.0072904   -9.3248379    197.68245   -1.0071648   -19.693048   -1.0743616   -1.0179402   -418.60739 
    7100    421.49374    1237.1543    1160.7416    71.429223     330.4246    1.5736626  -0.70132252   -17.783435   -207.76111   -1.0452409   -19.560944    1.6611264  -0.75253919   -6.8761464   -207.79029   -1.0930634    -9.327179    197.64473  -0.96884956   -19.732872   -1.0768497   -1.0178959   -418.61105 
    7200    421.49374    1218.1841    1170.3003    87.845857    330.35916    1.5559677  -0.79463781   -17.745173   -207.77304   -1.0331448   -19.551564    1.6259785  -0.84875914   -6.8427938   -207.77344    -1.037589   -9.3589033     197.6372   -1.0084543   -19.711398   -1.0793377   -1.0178517   -418.61471 
    7300    421.49374    1212.6142    1143.9824    100.16335    330.30138    1.6025056  -0.85201649   -17.708185   -207.77104   -0.9811182   -19.624078    1.6484286  -0.96448963   -6.7614059    -207.8106  -0.98600621   -9.4633861    197.60864   -1.0409468   -19.676417   -1.0818257   -1.0178074   -418.61837 
    7400    421.49374    1234.5467    1169.6201    88.795976    329.94949    1.6170091  -0.82208722   -17.668349    -207.7909  -0.99996756   -19.711934    1.6582454  -0.93430481   -6.7248898   -207.79576  -0.98756824   -9.5516689    197.59919   -1.0780913   -19.708954   -1.0843137   -1.0177632   -418.62203 
    7500    421.49374    1227.4091    1157.3764    42.322473    330.56073    1.6814455  -0.78045712   -17.626465   -207.82655  -0.99600117   -19.736622    1.6841654  -0.82489652   -6.6987311   -207.83066  -0.99281435   -9.5396038    197.59878   -1.0807993   -19.685989   -1.0868018   -1.0177189   -418.62569 
    7600    421.49374     1237.191    1162.5604    69.948267    330.22576    1.6603699  -0.82849135   -17.650408   -207.80188  -0.93764907   -19.832628    1.6808144  -0.83279581   -6.7844319   -207.79527  -0.96597394   -9.6428529    197.58417   -1.0685176   -19.699547   -1.0892898   -1.0176747   -418.62935 
    7700    421.49374     1188.215    1112.5347    48.155779    330.58187    1.6696617  -0.86208475   -17.604858   -207.81097  -0.97070379   -19.922064    1.8142806  -0.87380103   -6.6948426   -207.77599   -0.9616594   -9.7332204    197.59032   -1.0125988   -19.734998   -1.0917778   -1.0176305   -418.63301 
    7800    421.49374    1204.7315    1156.2328    35.726113     329.6595    1.6531857  -0.86065962    -17.55289   -207.82934  -0.94533708   -19.979446    1.7717601  -0.83271006   -6.6612295   -207.82156  -0.93843568   -9.7797279    197.59689  -0.93138883   -19.780094   -1.0942658   -1.0175862   -418.63667 
    7900    421.49374    1148.7765    1113.8544    9.8964356    330.80017    1.6266428  -0.79432114    -17.48602   -207.80745  -0.87739793   -19.953984    1.7751949   -0.7701504    -6.599592   -207.80994  -0.87249819   -9.7707898    197.56145  -0.91882412   -19.827555   -1.0967539    -1.017542   -418.64032 
    8000    421.49374    1192.0071    1153.9751    3.2712787    330.18164    1.6871952  -0.78323768   -17.547513   -207.80089  -0.82717533    -19.99707    1.8493839  -0.73226543   -6.6581836   -207.78761  -0.80499942   -9.8768306    197.56474  -0.90982312   -19.916559   -1.0992419   -1.0174977   -418.64398 
    8100    421.49374    1180.6918    1130.9974    16.276111    329.69933    1.5984897  -0.76240032   -17.609986   -207.79963  -0.88021943   -20.018228    1.7216283  -0.82004295   -6.6941075   -207.75489  -0.83361214   -9.8910395    197.59791  -0.88423515   -19.900385   -1.1017299   -1.0174535   -418.64764 
    8200    421.49374    1141.8858    1095.5744   -29.969586     330.2221    1.5809617   -0.7962872   -17.696113   -207.77586   -0.9255706   -19.966527    1.6698255  -0.82927166   -6.7743717   -207.78509  -0.90289915   -9.8131801    197.60095  -0.92623333   -19.918988   -1.1042179   -1.0174092    -418.6513 
    8300    421.49374     1208.617    1108.8651   -20.849566    329.62577    1.5855195  -0.80632366   -17.650613   -207.75498  -0.92546513   -19.935006    1.7354312  -0.85763882   -6.7742794   -207.73276  -0.89202474   -9.7570047     197.6551  -0.95787733   -19.944894    -1.106706    -1.017365   -418.65496 
    8400    421.49374    1139.0087    1080.9171   -42.739637    330.25475    1.5681222  -0.81974739   -17.640642    -207.7175  -0.98935662   -19.928886    1.7184144   -0.8871283   -6.7706826   -207.68955  -0.94609079   -9.7240498    197.62853   -0.9423242   -19.979552    -1.109194   -1.0173207   -418.65862 
    8500    421.49374    1119.5386    1058.3373   -117.22044    330.37405    1.5962005  -0.72595443   -17.622631   -207.76205   -0.9912431   -19.929801    1.7704384  -0.81238328   -6.6932351   -207.73263   -1.0136834   -9.7147422    197.67641  -0.92927753   -19.949679    -1.111682   -1.0172765   -418.66228 
    8600    421.49374    1176.2918    1070.3103   -85.821081    329.76783    1.6783793  -0.76511823    -17.56772   -207.76651  -0.96602244   -19.939178    1.8746816  -0.93801227   -6.6569945   -207.75331   -1.0093344   -9.7244458    197.68629  -0.90619521   -19.881714     -1.11417   -1.0172323   -418.66594 
    8700    421.49374    1119.5655    1064.2055   -110.55602    330.61996    1.6096872  -0.74648217   -17.675437   -207.77691  -0.93032257   -19.979875    1.7857062   -0.9144562   -6.7435853   -207.71304  -0.94788048    -9.772095    197.66838  -0.86701771   -19.811344   -1.1166581    -1.017188   -418.66959 
    8800    421.49374    1190.4424     1055.819   -78.687736    330.17752    1.6034406  -0.78158437   -17.653666   -207.79785  -0.97581251   -19.930844    1.7998568  -0.88291996   -6.7207816   -207.77112    -1.001837   -9.7534543    197.68743   -0.8126989   -19.836321   -1.1191461   -1.0171438   -418.67325 
    8900    421.49374    1101.2933    1046.9547    -114.9069    330.63488    1.6708028   -0.8138541   -17.659823   -207.78037  -0.94897997   -19.837483    1.8294045  -0.87156535   -6.8066517   -207.77012   -1.0105096   -9.6357739    197.66066  -0.78070644   -19.805497   -1.1216341   -1.0170995   -418.67691 
    9000    421.49374    1111.3845    1036.3873   -152.00098    330.55995     1.661714  -0.88503305   -17.569225   -207.79537  -0.88660703   -19.790606    1.8396946  -0.91121713   -6.7014863   -207.82524  -0.89198607   -9.5927861    197.60928  -0.82243435   -19.817673   -1.1241221   -1.0170553   -418.68057 
    9100    421.49374     1172.521    1033.1371   -119.41199     330.1088    1.5993316  -0.86530665   -17.566917   -207.83445  -0.84621086   -19.788914    1.6772868  -0.83165577   -6.6746562   -207.85722    -0.802034   -9.5597003    197.59627  -0.89413288    -19.85725   -1.1266102    -1.017011   -418.68423 
    9200    421.49374    1138.9128    1007.8885   -159.94815     330.3596    1.6144455  -0.92345917   -17.662577   -207.84047  -0.89170039   -19.797647    1.6752708  -0.78982573   -6.7339838   -207.82539  -0.88568453   -9.5569701    197.60412    -0.932713   -19.829237   -1.1290982   -1.0169668   -418.68789 
    9300    421.49374    1100.7798     1014.634   -177.85437    329.92649    1.6196262  -0.82701984   -17.689333   -207.83747  -0.93716397   -19.808642    1.7382044  -0.73131697   -6.7981521   -207.85652  -0.94666665   -9.6071774    197.63735  -0.99230211   -19.739138   -1.1315862   -1.0169225   -418.69155 
    9400    421.49374    1127.1466    1039.9081   -197.67877    329.80784    1.6327322  -0.81931403   -17.835417   -207.83516   -1.0084671   -19.742528    1.6960807  -0.77843445   -6.9076776   -207.81911   -1.0100924   -9.5486336    197.61345  -0.97541832   -19.641441   -1.1340742   -1.0168783   -418.69521 
    9500    421.49374    1074.8922    1001.9731   -255.16976    330.37695     1.541322   -0.8095652   -17.889441   -207.88124   -1.0973857   -19.690117    1.5932409  -0.80599068   -6.9623668   -207.87083   -1.0762212   -9.4958397    197.64467   -0.9993723   -19.592918   -1.1365623   -1.0168341   -418.69887 
    9600    421.49374     1035.391    1027.6329   -271.76429    330.01379    1.5278195  -0.69804427   -18.031361   -207.84755   -1.0481972   -19.601097    1.5853259  -0.69483922   -7.2257365   -207.78854   -1.0238821   -9.4183512    197.64374   -1.0086378   -19.625585   -1.1390503   -1.0167898   -418.70252 
    9700    421.49374    1061.8938    988.91241   -252.49207    330.13726    1.5474419  -0.65192871   -18.100992   -207.85645   -1.0736995   -19.526063     1.593216  -0.68861398   -7.2672425   -207.86786   -1.0527242   -9.2865019    197.62472   -1.0435948   -19.589519   -1.1415383   -1.0167456   -418.70618 
    9800    421.49374    1019.8125    959.39063   -269.65969    330.39751     1.550878  -0.72869906   -18.163064   -207.87626   -1.0523741   -19.478004    1.6336465  -0.74353076   -7.3860203   -207.93673   -1.1134255   -9.2402589    197.56334    -1.015367   -19.618251   -1.1440263   -1.0167013   -418.70984 
    9900    421.49374    1039.8368    987.88404   -249.09485     330.1372    1.5568311  -0.73364217    -18.28061    -207.9016   -1.0357413   -19.457619    1.7012523  -0.79682633   -7.4431423   -207.96644   -1.1115345   -9.1925975    197.54655  -0.98848216   -19.616811   -1.1465144   -1.0166571    -418.7135 
   10000    421.49374    1049.0203    1013.4763    -262.1315    330.10345    1.5499232  -0.70494282   -18.361856   -207.88798  -0.97515423   -19.453697    1.7728395  -0.79765061    -7.566462   -207.94446   -1.0012454   -9.2217226     197.5752  -0.99691249   -19.552669   -1.1490024   -1.0166128   -418.71716 
   10100    421.49374    1081.6208    971.19384   -263.14692     330.4247    1.5248428  -0.71374051   -18.445075   -207.83948  -0.91804756   -19.477073    1.6609769  -0.80407143   -7.5904238   -207.85469  -0.88724438   -9.2616738    197.58182   -1.0609652   -19.464277   -1.1514904   -1.0165686   -418.72082 
   10200    421.49374    1097.9129    1032.3352   -193.00449    329.91973     1.562873  -0.77216901   -18.497708   -207.85269  -0.86511204   -19.414215    1.6332453  -0.83071441   -7.6135236   -207.88048  -0.86484669   -9.2272062    197.59193   -1.0292179    -19.41616   -1.1539784   -1.0165244   -418.72448 
   10300    421.49374     1085.571    975.11469   -244.14792    330.50741    1.6640578  -0.85100656   -18.484239   -207.90783   -0.9518176   -19.376011    1.7404916   -0.8517413   -7.5771694   -207.91631  -0.92978317   -9.1937945    197.60116  -0.97415599   -19.375552   -1.1564665   -1.0164801   -418.72814 
   10400    421.49374    1090.5896    996.35941   -251.76207    330.03573    1.6243122  -0.96430327   -18.468747   -207.89507   -1.0198395   -19.347838    1.7299254   -1.0058139   -7.5511152   -207.91496  -0.99054118   -9.1236051    197.58784  -0.94078814    -19.33213   -1.1589545   -1.0164359   -418.73179 
   10500    421.49374    1034.1136    894.25196   -334.82076    330.97095    1.6641207  -0.91339789   -18.565297   -207.89054   -1.0157422   -19.283637    1.7664882  -0.97792829   -7.6370468   -207.87954    -1.002812   -9.1004412    197.57037  -0.92636793   -19.200326   -1.1614425   -1.0163916   -418.73545 
   10600    421.49374    1062.3982    941.25823   -327.76679    329.92978    1.6405669  -0.94983473   -18.590106   -207.88717  -0.95393782   -19.256468    1.7934213  -0.96350724   -7.7710256   -207.86409  -0.94367298   -9.0278311    197.49365   -0.9627135   -19.130328   -1.1639305   -1.0163474   -418.73911 
   10700    421.49374    1003.8214    984.51191   -332.21838    329.82444    1.5929772  -0.91473421   -18.645997   -207.92892  -0.95425833   -19.223739    1.7199146  -0.92954693   -7.8708811   -207.88057  -0.95931986   -9.0262084    197.47696  -0.94705465   -19.162836   -1.1664186   -1.0163031   -418.74277 
   10800    421.49374    916.22118    902.00621   -447.74153    330.41256    1.5847204  -0.88893622   -18.689279   -207.91216  -0.98665542   -19.123141    1.7139628  -0.88450081   -7.8283271   -207.85684  -0.98927855   -8.9279837     197.4914  -0.92342871   -19.109835   -1.1689066   -1.0162589   -418.74643 
   10900    421.49374    893.25343    875.71446   -514.05668    330.77144    1.5277782  -0.82487603   -18.780731   -207.85586   -0.9735203   -19.115734    1.6923653  -0.84104194   -7.8871209   -207.84759   -1.0071726   -8.9035263    197.46205  -0.91711382   -19.113697   -1.1713946   -1.0162146   -418.75009 
   11000    421.49374    895.89351    814.86437   -561.11012    330.33331     1.546533  -0.76220471   -18.779965   -207.87922   -0.9536415    -19.12053    1.6534419  -0.83334136   -7.8550126   -207.90363   -1.0194492   -8.9232088    197.48502  -0.91971114   -19.115232   -1.1738826   -1.0161704   -418.75375 
   11100    421.49374    861.87742    804.09967    -599.7674    330.47306    1.5047099  -0.73055062   -18.763808   -207.86752  -0.98435849   -19.142681     1.564311  -0.82687978   -7.8202234   -207.89287   -1.0083368    -8.977646    197.49352  -0.90821502   -19.129455   -1.1763707   -1.0161262   -418.75741 
   11200    421.49374    854.25817    834.81528   -615.86646    329.69631    1.5331595  -0.81113948   -18.765987    -207.8781  -0.91104756   -19.136171    1.6021144  -0.86049802    -7.902184   -207.89003  -0.88884302   -8.9830024    197.50328  -0.87422029    -19.13084   -1.1788587   -1.0160819   -418.76106 
   11300    421.49374    822.51202    779.11507   -715.86971    330.11501    1.4914007  -0.76216243   -18.871864   -207.84965  -0.87197035   -19.121567    1.6105289  -0.84161902   -8.0342641   -207.90594  -0.86851213   -8.9524161    197.47598  -0.92026659    -19.16701   -1.1813467   -1.0160377   -418.76472 
   11400    421.49374    794.13843    726.40316   -734.17786    330.06305    1.5109063  -0.76266812   -18.959371   -207.83281   -0.8453778   -19.126711    1.6185123  -0.78990946   -8.1564802   -207.87897  -0.86506186   -8.9365899    197.50178  -0.89886129    -19.21562   -1.1838347   -1.0159934   -418.76838 
   11500    421.49374    755.88554    748.14631    -772.5147    329.84707    1.5198908  -0.81682772   -18.997644   -207.83706  -0.83707219   -19.145812    1.6449805  -0.87107475   -8.1470601   -207.86735  -0.79455681   -8.9707104    197.47583  -0.91024661   -19.224474   -1.1863228   -1.0159492   -418.77204 
   11600    421.49374     739.1372    702.11382    -815.7905    330.47209    1.5207646    -0.877173   -18.955354   -207.82664  -0.90218236   -19.149187    1.6023119  -0.87043218   -8.1240287   -207.84933  -0.84702115   -8.9223734    197.52036  -0.87164305   -19.169669   -1.1888108   -1.0159049    -418.7757 
   11700    421.49374    750.45711     683.0156   -773.30627    330.24186    1.5691492  -0.90985744   -18.991929    -207.8905  -0.92648331   -19.182589    1.5719214  -0.99268596    -8.193148   -207.87854  -0.91926754   -8.9600198    197.51985  -0.88737371   -19.146585   -1.1912988   -1.0158607   -418.77936 
   11800    421.49374    758.29854    704.88941   -763.78654     330.1356    1.6107633  -0.83976406   -18.953272   -207.85662  -0.96514406   -19.146177     1.675632  -0.89337567   -8.0848416   -207.80387  -0.92162788   -8.9523962    197.52547  -0.92707347   -19.218685   -1.1937868   -1.0158164   -418.78302 
   11900    421.49374    785.24657    704.20459   -769.81785    330.29102    1.5101529  -0.85129616   -18.954876   -207.81653   -1.0093807    -19.13904    1.5497192  -0.95755762   -8.0382154   -207.76463  -0.94861784   -8.9981716    197.52709  -0.96800451   -19.229621   -1.1962749   -1.0157722   -418.78668 
   12000    421.49374    807.67547     748.1016   -706.97636    330.44319    1.5493496  -0.82031731   -18.938818    -207.8339   -1.0387167   -19.216606    1.6021517   -0.9479908   -8.0422732   -207.77432   -1.0289201   -9.0769919    197.52912   -1.0171913   -19.244863   -1.1987629    -1.015728   -418.79034 
   12100    421.49374    835.20431    802.69654   -675.95805    330.08953    1.5448197  -0.76989199   -18.898757   -207.84101   -1.0152397   -19.309393    1.6850503  -0.81443505   -8.0156211   -207.82959   -1.0163153   -9.0733852    197.49388   -1.0138791   -19.255392   -1.2012509   -1.0156837   -418.79399 
   12200    421.49374    884.77092     832.9574   -562.01455    329.58784    1.5518835  -0.70691796   -18.924982   -207.85687    -1.081033   -19.344719    1.7253252  -0.77094221   -7.9262975   -207.84331   -1.0860447    -9.158885    197.45865   -1.0977962   -19.246753   -1.2037389   -1.0156395   -418.79765 
   12300    421.49374    928.46452    868.04665   -486.92876    329.53895    1.5216688  -0.73937304   -18.881617   -207.82916   -1.1002761   -19.350985    1.7011405  -0.70809257   -7.9303404   -207.87118   -1.1373172   -9.2056878    197.46095   -1.1075315   -19.265904    -1.206227   -1.0155952   -418.80131 
   12400    421.49374    956.06663    877.56913   -461.79572    330.42582    1.5597449   -0.8133958   -18.845712   -207.80403   -1.1162012   -19.336247    1.7099138  -0.80431315   -7.9780617   -207.83668    -1.172462   -9.2260485    197.49039   -1.1343505   -19.307938    -1.208715    -1.015551   -418.80497 
   12500    421.49374    975.88002    940.25981    -384.1134    330.79812    1.5758207  -0.88416148   -18.796598   -207.82474   -1.1329799   -19.302952    1.7103371   -0.8833596   -7.9549912   -207.86441   -1.1768877   -9.1401141    197.50668   -1.1335519   -19.317676    -1.211203   -1.0155067   -418.80863 
   12600    421.49374    1031.6207    976.64598   -310.81965    330.42789    1.6035682   -0.8836638   -18.907914   -207.80965   -1.1667948   -19.305234    1.6946482  -0.85130901   -8.1401413   -207.81754   -1.1628524   -9.1196321    197.56443   -1.1334891    -19.30501    -1.213691   -1.0154625   -418.81229 
   12700    421.49374     1059.099    985.54988    -305.0513    331.01906    1.6027873  -0.92646586   -18.916719   -207.83415   -1.1486143   -19.286547    1.7342044  -0.99069402   -8.1382741   -207.83132   -1.1485227   -9.0685164    197.55102   -1.1116099   -19.291741   -1.2161791   -1.0154182   -418.81595 
   12800    421.49374    1089.1379    1024.3441   -214.18762    330.03884    1.6535478  -0.93125122   -18.958731   -207.81762   -1.0863128   -19.298076    1.7872941  -0.94816298   -8.1060611   -207.78352   -1.0899656   -9.0808841    197.55514   -1.0631138   -19.229834   -1.2186671    -1.015374   -418.81961 
   12900    421.49374     1064.419    1002.8332   -244.88748     330.9392    1.6793453  -0.87818427   -18.889274    -207.8093   -1.0618694   -19.315146    1.8493969  -0.88789427   -8.0127943   -207.76777   -1.0777307   -9.1206333    197.57808    -1.038753   -19.231902   -1.2211551   -1.0153298   -418.82326 
   13000    421.49374    1096.5942    1048.9965   -201.78536     330.3586    1.6657347  -0.85159458   -18.856324   -207.86607  -0.97353093   -19.252586     1.835225  -0.91437813   -8.0386379   -207.84265   -1.0084695   -9.0203657    197.57676   -1.0540944   -19.204733   -1.2236431   -1.0152855   -418.82692 
   13100    421.49374    1079.0336    1022.9286   -176.69129    330.66626    1.6648179  -0.79541922    -18.76201   -207.87927   -1.0014923   -19.253218     1.805919  -0.86651983   -7.9426638   -207.88685   -1.0586108    -8.995888    197.53295   -1.0639456   -19.303302   -1.2261312   -1.0152413   -418.83058 
   13200    421.49374    1094.2941    1067.8034   -198.67768    330.69203     1.634324  -0.75854183   -18.834862   -207.90052   -1.0028229   -19.232213    1.8072676   -0.8492943   -7.9928774   -207.91065  -0.99209343   -9.0116139    197.48719   -1.0462518   -19.309715   -1.2286192    -1.015197   -418.83424 
   13300    421.49374    1153.6639    1018.4308   -200.04813    330.78884    1.5736728  -0.73050387   -18.814041   -207.93128   -1.0227848   -19.230903    1.7094216   -0.7968438   -8.0045262   -207.96511    -1.007511   -9.0521227    197.47762   -1.1008689   -19.316536   -1.2311072   -1.0151528    -418.8379 
   13400    421.49374    1116.4092    1059.1307    -104.6035     330.2891    1.6205464  -0.62917438   -18.757957   -207.88931   -1.0508912   -19.319829    1.7191251   -0.6859053    -7.908435   -207.91094  -0.98068742   -9.1125859    197.48603   -1.0904636   -19.338986   -1.2335952   -1.0151085   -418.84156 
   13500    421.49374    1097.4624     1073.023   -152.45921    330.73547    1.5513434  -0.71325801   -18.676663    -207.8593   -1.0141245   -19.359837    1.6730167  -0.78210266   -7.8346581   -207.83786  -0.97965061   -9.1479327    197.48174   -1.1009148   -19.336297   -1.2360832   -1.0150643   -418.84522 
   13600    421.49374    1109.7127    1048.3821   -146.03902    330.91048    1.5433622  -0.71233026   -18.664608   -207.88362  -0.99585335   -19.439978    1.6415103  -0.77011672   -7.8229699   -207.86625  -0.95016428   -9.2701012    197.53174    -1.086248   -19.403791   -1.2385713     -1.01502   -418.84888 
   13700    421.49374    1133.4517     1079.465   -112.30047    330.57673    1.5350487  -0.73343812     -18.5988   -207.85123   -1.0488648   -19.467497    1.6026466  -0.77682422   -7.7162257   -207.81467  -0.97050739   -9.2447892    197.49686   -1.0858596   -19.466759   -1.2410593   -1.0149758   -418.85254 
   13800    421.49374    1147.5242    1025.8442   -85.231232    330.73218    1.4927458  -0.76766177   -18.618212   -207.88202   -1.0359353   -19.487033    1.5141129  -0.81374411   -7.7865206   -207.87459   -1.0301447    -9.290918     197.5226   -1.0094545   -19.474288   -1.2435473   -1.0149316   -418.85619 
   13900    421.49374    1126.7662    1039.3625   -147.50128    331.16822    1.4750136  -0.82871954   -18.638978   -207.87014   -1.0775073   -19.524841     1.506636  -0.77172093    -7.857605   -207.86414   -1.0904434   -9.3334489    197.50257   -1.0933674   -19.481017   -1.2460353   -1.0148873   -418.85985 
   14000    421.49374    1136.1468    1064.5092   -64.076341    330.85892    1.4853327  -0.82128295   -18.719436   -207.87125   -1.0495202   -19.481112    1.5483551  -0.84999068   -7.8728723   -207.86069   -1.0362923   -9.3675786    197.50997   -1.1136753   -19.484063   -1.2485234   -1.0148431   -418.86351 
   14100    421.49374    1154.3468     1081.344   -67.012046    330.70994     1.494568  -0.81199389   -18.722396   -207.85216   -1.0818972   -19.458707    1.5699744   -0.8548599    -7.916306   -207.90655   -1.0723999   -9.2963218    197.47953   -1.1008864   -19.497152   -1.2510114   -1.0147988   -418.86717 
   14200    421.49374    1145.5913    1110.5239   -76.970053    330.83398    1.4355475  -0.87142094   -18.737168   -207.87954   -1.0603599   -19.457355    1.5450902  -0.98665126   -7.9632903    -207.9108   -1.0837372    -9.239085    197.53153   -1.1023025    -19.48076   -1.2534994   -1.0147546   -418.87083 
   14300    421.49374    1146.6464    1091.3326   -79.865662    331.03123    1.4272256  -0.83991706   -18.656308   -207.88597   -1.0531887   -19.484176    1.5003254  -0.92681361   -7.8681124    -207.9409   -1.0845737    -9.264986    197.49262    -1.093308   -19.486162   -1.2559874   -1.0147103   -418.87449 
   14400    421.49374    1145.2476    1109.6768   -52.423621    330.79854    1.3683488  -0.78770323   -18.607455   -207.93484   -1.0635625   -19.470944    1.4946656  -0.81082893   -7.8103337   -207.96609   -1.0754011   -9.2050245    197.52533   -1.0397717    -19.42904   -1.2584755   -1.0146661   -418.87815 
   14500    421.49374    1155.4077    1138.7048   -21.995403    330.45714    1.3546748  -0.82315743   -18.588821   -207.94318   -1.0386427   -19.406711    1.4781038  -0.94218413   -7.8035171   -207.98488   -1.0171771   -9.1541172    197.48048   -1.0291001   -19.480106   -1.2609635   -1.0146218   -418.88181 
   14600    421.49374    1190.5958    1104.9502    -31.16547    331.10983    1.4042042  -0.87990738   -18.578059   -207.92364  -0.98490971    -19.40598    1.5461951  -0.87406224   -7.7613467   -207.91243  -0.99284748    -9.207497    197.48379   -1.1069841   -19.527217   -1.2634515   -1.0145776   -418.88546 
   14700    421.49374    1214.8513     1181.261   -18.621982    330.71731    1.3863065  -0.73755359   -18.460561    -207.9176  -0.93609089   -19.421221    1.5541222   -0.7629095   -7.6231313   -207.90668  -0.96421401   -9.2424156    197.51816    -1.118538   -19.523357   -1.2659395   -1.0145334   -418.88912 
   14800    421.49374    1227.1912    1169.6918    16.483801    330.49958    1.4171543  -0.76873436   -18.422418   -207.92171   -1.0093271   -19.518589    1.5729062  -0.79339616    -7.586769   -207.89376     -1.07024   -9.2802311    197.49344   -1.0958553   -19.478794   -1.2684276   -1.0144891   -418.89278 
   14900    421.49374    1239.6253    1149.5169    44.890096    330.69764    1.4116167  -0.86203878   -18.371512   -207.89392   -1.0406253   -19.553456    1.5763655  -0.82468007   -7.5404798   -207.84343   -1.0748099   -9.3269995    197.50624   -1.0911953    -19.52037   -1.2709156   -1.0144449   -418.89644 
   15000    421.49374    1204.5216    1169.1923    80.340283    330.98509    1.4016524  -0.85369673   -18.383028   -207.88081   -1.0410891   -19.566769    1.5698158  -0.80785842   -7.5416869   -207.85278   -1.1222919   -9.3498674    197.52506   -1.0105251   -19.587996   -1.2734036   -1.0144006    -418.9001 
   15100    421.49374    1235.0074    1191.8258    46.931639    330.74844    1.3731631  -0.87550778   -18.372737   -207.84188   -1.0323968   -19.627119    1.5027117  -0.88466817   -7.5277469   -207.82539   -1.0596119   -9.4055157     197.5251   -0.9383936   -19.672794   -1.2758916   -1.0143564   -418.90376 
   15200    421.49374    1256.6557    1190.0054    88.648075     330.7508    1.3779616  -0.92956962   -18.369989   -207.87555   -1.0457449   -19.642578    1.4822248  -0.95352812   -7.5475881   -207.86911   -1.0477005   -9.3846145    197.55107  -0.89557138   -19.665273   -1.2783797   -1.0143121   -418.90742 
   15300    421.49374    1307.3667      1228.48    114.42648    330.20376    1.3629319  -0.84046427   -18.385245   -207.86048  -0.93360692   -19.693407    1.4585775  -0.86915815   -7.5401825   -207.85608  -0.91751784   -9.4666566    197.52034  -0.86269062     -19.7215   -1.2808677   -1.0142679   -418.91108 
   15400    421.49374    1249.6021    1220.7327    120.15159    330.54878    1.3620833  -0.85770385   -18.382743   -207.87129  -0.90822547    -19.71219    1.4393266  -0.87254428   -7.5384412   -207.89593  -0.90786513   -9.5082131    197.51504  -0.84269553   -19.761519   -1.2833557   -1.0142236   -418.91473 
   15500    421.49374    1245.7057    1240.6797    155.69543    330.44116    1.3553583  -0.88042499   -18.357909   -207.93666   -0.9066779    -19.72583    1.3974515  -0.89795149   -7.5463388   -207.94595   -0.8840179   -9.5457002    197.46933  -0.87772839   -19.764527   -1.2858437   -1.0141794   -418.91839 
   15600    421.49374    1271.0783    1200.8918    121.79141    330.53254    1.3869398  -0.90665058   -18.413402   -207.96659  -0.87860954   -19.843672    1.4484469  -0.93468608   -7.6414636   -207.97611  -0.83431903   -9.6475595    197.37832  -0.87160669   -19.781063   -1.2883318   -1.0141352   -418.92205 
   15700    421.49374    1293.2515    1235.7071    172.30997    330.63162     1.358577  -0.92059186   -18.387775   -208.00386  -0.89894819    -19.87565    1.3730465  -0.96421702   -7.6177681   -208.01514  -0.90397593   -9.6757743    197.36802  -0.83590208   -19.752076   -1.2908198   -1.0140909   -418.92571 
   15800    421.49374    1262.7473    1271.7851    152.66872    330.77443    1.3985118  -0.94597669    -18.47338   -208.04576  -0.97302371   -19.949703    1.4677173  -0.96703533   -7.7080525   -208.05925  -0.94655991   -9.7552995    197.37331  -0.85155414   -19.797264   -1.2933078   -1.0140467   -418.92937 
   15900    421.49374     1300.042    1232.5861    193.54608    330.78451    1.3706959  -0.98351323   -18.513175   -208.05209  -0.94242861    -19.98387    1.3911024   -1.0897631   -7.7726227   -208.06389  -0.88589627   -9.7794223    197.33102  -0.82188651   -19.807987   -1.2957958   -1.0140024   -418.93303 
   16000    421.49374    1279.8702    1192.0721    204.92623    331.74409    1.3905124  -0.89486833   -18.599079   -208.10131  -0.91165011   -19.978963    1.4789072    -1.037786   -7.8163137   -208.11166  -0.85845731    -9.767612    197.33559  -0.82848538   -19.743883   -1.2982839   -1.0139582   -418.93669 
   16100    421.49374    1303.5917     1259.676    240.40041    330.86668    1.3295831  -0.90250356   -18.634693   -208.07971  -0.85076511   -19.916433    1.4740364   -1.0056895   -7.8858935   -208.05652  -0.79173763   -9.6858679    197.34325   -0.8594737   -19.796649   -1.3007719   -1.0139139   -418.94035 
   16200    421.49374      1339.57    1252.5896    252.05105    331.03334    1.3719992  -0.83266205   -18.574936   -208.05106  -0.84450894   -19.853858    1.4663987  -0.91700122   -7.8013515   -208.01773  -0.84445779   -9.6294656    197.35667  -0.84475564   -19.916651   -1.3032599   -1.0138697   -418.94401 
   16300    421.49374    1346.2734    1277.7626    262.46065    330.91548    1.3236572  -0.81274996   -18.622765   -208.03684  -0.86424946   -19.830615    1.4323823  -0.83599294   -7.8512388   -207.95556  -0.90222035   -9.5655181    197.32848  -0.81719383   -19.860834   -1.3057479   -1.0138255   -418.94766 
   16400    421.49374    1330.9833    1289.4198    300.88648    331.66954    1.3626967  -0.81876259    -18.55919   -208.04306  -0.85359214   -19.877553    1.4789785  -0.85862414   -7.8353899   -208.00499  -0.90549282   -9.6429966    197.33404  -0.79812481   -19.839947    -1.308236   -1.0137812   -418.95132 
   16500    421.49374    1355.3088    1339.0475    305.58278    330.76414    1.3477338  -0.80254342   -18.635305   -208.07135  -0.88022716   -19.928569    1.4786561  -0.77508609   -7.8698492    -208.0489  -0.88119686   -9.7460224    197.32264  -0.80283615   -19.853592    -1.310724    -1.013737   -418.95498 
   16600    421.49374     1351.037    1299.6468    318.92128    330.88269    1.3267387  -0.79716707   -18.689942   -208.08454  -0.88278533   -19.941479    1.4469697  -0.77232395   -7.9031878   -208.04746  -0.86690198   -9.7532156    197.30647  -0.84545439   -19.906378    -1.313212   -1.0136927   -418.95864 
   16700    421.49374    1373.8137    1290.1098    306.36449    330.80551    1.3002239  -0.76018994   -18.758012   -208.10357  -0.88655843   -19.958136    1.3839591  -0.81050611    -7.959506   -208.14777  -0.86538933   -9.6865591    197.29107  -0.91709313   -19.954095      -1.3157   -1.0136485    -418.9623 
   16800    421.49374    1308.0276    1285.2994    181.25063    331.39482    1.3078469  -0.69805094   -18.775495   -208.10573  -0.89896384   -19.900186    1.4096308  -0.73579629   -7.9740735   -208.14381  -0.88088595    -9.666711    197.34158  -0.97317961   -19.960181   -1.3181881   -1.0136042   -418.96596 
   16900    421.49374    1321.7893    1262.0141     249.8104    330.59105    1.3433048  -0.70675822   -18.788152   -208.07358  -0.93788708   -19.984864    1.3868711  -0.74766691   -8.0123688   -208.08501  -0.91167574   -9.7458273    197.35437  -0.93840431   -19.970172   -1.3206761     -1.01356   -418.96962 
   17000    421.49374    1332.2554    1300.5209    268.86679     330.7955    1.3943875  -0.66851573   -18.779499   -208.07392  -0.92575918       -20.03    1.5165314  -0.64086852   -8.0270283   -208.09766  -0.93797906   -9.7600251     197.3826  -0.92974742   -20.000864   -1.3231641   -1.0135157   -418.97328 
   17100    421.49374    1337.3226     1327.961    276.80931    330.69631    1.4531322   -0.6725703   -18.870113   -208.00358  -0.94609083   -19.983411    1.5619793  -0.62761232   -8.0629915   -208.01297  -0.95699851   -9.7867763    197.36235  -0.87287657   -19.969336   -1.3256521   -1.0134715   -418.97693 
   17200    421.49374    1379.1267    1327.7522    316.07457    331.11436    1.4408796  -0.71254857   -18.857717   -208.00637  -0.87839353   -19.963862    1.5637202  -0.71086229   -8.0666337   -208.03015  -0.88633869   -9.7946573    197.40097  -0.91121235   -20.055732   -1.3281402   -1.0134273   -418.98059 
   17300    421.49374    1378.2075    1367.9741    333.70013    330.95892    1.4596785  -0.78049233   -18.957833   -208.00708  -0.85016019   -20.035757    1.5812574  -0.81108344   -8.1897219   -208.02953  -0.85226635   -9.7907946    197.34913  -0.94912459   -20.054015   -1.3306282    -1.013383   -418.98425 
   17400    421.49374     1413.089    1356.8656     359.2571     330.8448    1.4847597  -0.76541661   -19.069752   -207.97795  -0.85801707   -19.979128    1.5876738  -0.79613853   -8.2335461   -207.98191  -0.87732094   -9.7651891    197.35223  -0.94660808   -20.056125   -1.3331162   -1.0133388   -418.98791 
   17500    421.49374    1419.2898     1360.803     370.1562     331.2436     1.436633  -0.76452608   -19.158247   -208.00766  -0.93169548   -19.981942    1.5428629  -0.75841396   -8.3103883   -207.98919  -0.90779102   -9.8024585    197.41534  -0.92236978   -20.137608   -1.3356042   -1.0132945   -418.99157 
   17600    421.49374      1490.63    1450.1609    496.32477    330.86184    1.4663548  -0.72878927   -19.266512   -208.03456   -1.0057302   -19.970652    1.5875781  -0.72516224   -8.4781054   -208.02993  -0.99830801   -9.7531033    197.40107  -0.91985897   -20.126485   -1.3380923   -1.0132503   -418.99523 
   17700    421.49374    1496.2612    1441.0845    524.19406      330.807    1.4334306  -0.70527697   -19.325733   -207.99612   -1.0537083   -20.009725    1.6224105  -0.68103939    -8.501944   -207.99113   -1.0636902   -9.7893351    197.35097  -0.92052995   -20.114644   -1.3405803    -1.013206   -418.99889 
   17800    421.49374    1528.6606    1477.8603    549.08148    330.71827    1.4210887  -0.74434696   -19.394414   -208.01017   -1.0817314   -20.054116    1.5926867  -0.79321108   -8.6509774   -208.04816   -1.0728862   -9.7870395    197.35904  -0.98157552   -20.149301   -1.3430683   -1.0131618   -419.00255 
   17900    421.49374    1497.8044    1453.1746    599.73802    331.62569    1.4399264  -0.69098903   -19.461474   -208.00265  -0.99316402   -20.108036    1.6024377  -0.79721025   -8.7467881   -208.03102  -0.98928274    -9.862608    197.37159  -0.99381392   -20.123789   -1.3455563   -1.0131175   -419.00621 
   18000    421.49374      1511.46    1514.5073     594.8886    332.03468    1.3958533  -0.64172112   -19.537357   -207.99132  -0.96057109   -20.216816    1.5200541  -0.81192636   -8.8032901   -207.98315  -0.94833284   -10.040735    197.35885    -1.058556   -20.093669   -1.3480444   -1.0130733   -419.00986 
   18100    421.49374    1576.6809    1545.6396    695.14255    331.68769    1.3789873  -0.64558592   -19.526478   -207.97284   -1.0309778   -20.246705    1.5041803  -0.75304515   -8.7844983   -207.95167    -1.072172   -10.109448    197.34536   -1.0470685   -20.075539   -1.3505324   -1.0130291   -419.01352 
   18200    421.49374    1601.1093    1530.8309    708.23776    331.65389    1.3507843  -0.72318329   -19.644612   -207.98444  -0.97731816   -20.201331    1.4627844  -0.77668099   -8.8728767   -207.94705   -1.0049712   -10.040782    197.36302   -1.0043184   -20.087681   -1.3530204   -1.0129848   -419.01718 
   18300    421.49374    1591.0523    1556.8279    699.60718    332.31895    1.3882987   -0.7816396   -19.647175   -207.99267   -1.0373399   -20.122105    1.4786132   -0.8391483   -8.8831176   -207.97069   -1.0425521   -9.9646413    197.33819   -1.0611435    -20.07069   -1.3555084   -1.0129406   -419.02084 
   18400    421.49374    1635.3037    1587.8258    721.52911    331.18798    1.3304654  -0.75505585   -19.660691   -207.98994    -1.037438   -20.018329     1.406916   -0.7703825   -8.9356909   -207.96451   -1.0357271   -9.8587657    197.35222   -1.0530133   -20.084835   -1.3579965   -1.0128963    -419.0245 
   18500    421.49374    1562.8404    1528.9893     675.8018    331.92667    1.2728979  -0.75982868   -19.675637   -207.99817   -1.0715427   -19.949722    1.2851624  -0.71251333   -8.9641058   -208.00619   -1.0339091   -9.7902523    197.30824   -1.0598669   -20.050606   -1.3604845   -1.0128521   -419.02816 
   18600    421.49374    1589.2737    1539.6356    689.07206    331.15697    1.2671549  -0.76446732   -19.770622   -207.98134   -1.0435779   -19.975837    1.3820823   -0.6721342   -9.0083374   -208.02888   -1.0319251   -9.7741795    197.33656   -1.0873258   -19.962921   -1.3629725   -1.0128078   -419.03182 
   18700    421.49374    1573.8892    1546.3307    678.84157    331.13738    1.2693935   -0.7566701   -19.712367   -207.93603   -1.0640405   -19.874917    1.3910022  -0.82373461   -8.9436467   -207.98329    -1.087326   -9.7021239    197.34286   -1.0552273   -19.865825   -1.3654605   -1.0127636   -419.03548 
   18800    421.49374    1527.0595    1477.3533     597.0554    331.72406    1.2705815  -0.72038974   -19.699416   -207.95896   -1.0857271   -19.802674    1.4641797  -0.80598094   -8.8954566   -207.94717   -1.1349445   -9.6187157    197.35242    -1.111659   -19.786065   -1.3679486   -1.0127193   -419.03913 
   18900    421.49374    1534.0055    1439.1156    528.12971    331.35692    1.2484956  -0.74839681   -19.678499   -208.00445   -1.0767481   -19.737831    1.3974449  -0.79198526   -8.8467095   -207.99511   -1.0767574   -9.5174976    197.38635    -1.115495   -19.756857   -1.3704366   -1.0126751   -419.04279 
   19000    421.49374    1468.8595    1439.3773    471.27397    331.03692    1.2456907  -0.77734072   -19.692094     -207.981   -1.1259896   -19.667063    1.3789922   -0.7936558   -8.9311129   -207.98707   -1.0325696   -9.4871639    197.34249   -1.1766227   -19.680157   -1.3729246   -1.0126309   -419.04645 
   19100    421.49374    1396.0941    1366.7347    390.97553    331.35832    1.2837079  -0.84283976   -19.688932   -208.02005    -1.129304   -19.586696    1.4349118  -0.91533844   -8.9120072   -208.04257   -1.1276649   -9.3811673    197.40884   -1.1651283   -19.601301   -1.3754126   -1.0125866   -419.05011 
   19200    421.49374    1388.0493    1350.3516    338.83037      330.853      1.33734  -0.87932971   -19.704768   -207.97832   -1.1861369   -19.478174    1.4523007  -0.96297405   -8.9206928   -207.99574    -1.206194   -9.2562387    197.34968    -1.124256   -19.571051   -1.3779007   -1.0125424   -419.05377 
   19300    421.49374    1336.9491    1302.9669    266.90111    331.25852    1.3370875  -0.89215187   -19.705246   -208.00489   -1.1665566   -19.440557      1.45714   -1.0058376   -8.9105645   -207.97964   -1.1950061   -9.2091005    197.37083   -1.0455461   -19.524981   -1.3803887   -1.0124981   -419.05743 
   19400    421.49374    1302.2267    1294.6736    250.56834    331.47999    1.3324834  -0.86839912   -19.633352   -208.01499    -1.102818   -19.337224    1.4316675  -0.94822638   -8.8461271     -207.986   -1.0881408   -9.1055603    197.37639   -1.1280919   -19.475289   -1.3828767   -1.0124539   -419.06109 
   19500    421.49374    1319.9793     1292.359    208.07701    331.17624    1.3235348  -0.90285963   -19.647069     -207.991   -1.0737307   -19.370043    1.3994167  -0.92058094   -8.8323567   -207.96551   -1.0920815   -9.1414922     197.3292   -1.0998994   -19.403274   -1.3853647   -1.0124096   -419.06475 
   19600    421.49374    1331.7936    1246.1003    179.25543    331.10788    1.3744555  -0.88767846   -19.643561   -207.99765   -1.0230468   -19.360666    1.4594227  -0.93048487   -8.8922226    -207.9626   -1.0182708   -9.1598515    197.29859   -1.0924067   -19.360119   -1.3878528   -1.0123654   -419.06841 
   19700    421.49374    1276.9837    1242.0099    212.31316    331.31075    1.3839999  -0.87604899   -19.705218   -208.05916   -1.0013827   -19.342216    1.4645479   -0.9127178   -8.9871256   -208.03142  -0.99418201   -9.1798757    197.30887   -1.1169893   -19.299733   -1.3903408   -1.0123211   -419.07206 
   19800    421.49374    1299.2886    1300.4361    192.83161    330.46677    1.3969812  -0.81910086   -19.583922   -208.07031   -0.9692215   -19.350709     1.513779  -0.89939459   -8.8606101   -208.01888   -1.0004234   -9.1025291    197.26644   -1.0977855   -19.325621   -1.3928288   -1.0122769   -419.07572 
   19900    421.49374     1292.619    1266.2494    209.56545    330.74198    1.3560061  -0.80891109   -19.558879   -208.09361   -1.0279341   -19.382617    1.4836412  -0.80594311   -8.8261964   -208.05939   -1.0522226   -9.0948443    197.21009   -1.0778733   -19.285194   -1.3953168   -1.0122327   -419.07938 
   20000    421.49374    1261.5799    1266.3714    119.96553    331.16885    1.3198432  -0.83854881   -19.468029   -208.14476   -1.0128972   -19.394713    1.4338288   -0.8087924   -8.7026163    -208.1571  -0.98168638   -9.1655212    197.19331   -1.0394077   -19.350502   -1.3978049   -1.0121884   -419.08304 
   20100    421.49374    1285.0409    1228.5594    177.73221    330.86311      1.30104  -0.76867925   -19.552182   -208.16462  -0.99584078   -19.354514    1.4366809  -0.80356776   -8.7651317   -208.15706  -0.97527517   -9.1496461    197.20061   -1.0347417   -19.315515   -1.4002929   -1.0121442    -419.0867 
   20200    421.49374    1288.2634    1232.5944    97.401198    331.08813    1.2931895  -0.81994992   -19.524504     -208.197  -0.96326572   -19.290753    1.4221305  -0.87528495   -8.7339102   -208.22077   -0.9379985   -9.0926106    197.15986   -1.0398445   -19.321969   -1.4027809   -1.0120999   -419.09036 
   20300    421.49374    1275.0919    1236.7665    91.727123    330.93999    1.2460179  -0.82298283   -19.499505   -208.20297  -0.97728984   -19.311893    1.3750005  -0.88477847   -8.6988973   -208.18253  -0.95638513    -9.176827    197.09678   -1.0950484   -19.335726   -1.4052689   -1.0120557   -419.09402 
   20400    421.49374    1269.1563      1226.64    130.09303    330.80116    1.2465047  -0.78116337   -19.522872   -208.23509  -0.97164013   -19.308287    1.3347325  -0.78279914   -8.8080939   -208.21405  -0.99264838   -9.0927824    197.12442   -1.1006671   -19.324331    -1.407757   -1.0120114   -419.09768 
   20500    421.49374    1255.9667    1185.5661    104.02402    331.00347    1.2190921   -0.7315745   -19.537574   -208.24286   -1.0396801   -19.335334    1.2947738  -0.68875473   -8.8453122   -208.21916   -1.0967697   -9.1303201    197.13826   -1.0585041   -19.265319    -1.410245   -1.0119672   -419.10133 
   20600    421.49374    1274.4243    1232.5322    131.61495    330.52661    1.2297574   -0.8381112   -19.543115   -208.19285   -1.0515359   -19.383551    1.3165748  -0.74027032   -8.7915881   -208.20587   -1.0664919   -9.1792515    197.13141   -1.0953678    -19.24915    -1.412733   -1.0119229   -419.10499 
   20700    421.49374    1244.0878    1192.1209    109.85197    331.11177     1.263652  -0.84574983   -19.415864   -208.22031   -1.0269341   -19.369912    1.3640196  -0.75765548   -8.6984817   -208.20434  -0.96787143   -9.1856902    197.12614   -1.1149993   -19.216264    -1.415221   -1.0118787   -419.10865 
   20800    421.49374    1228.1802    1178.6471    66.826736     331.2742    1.2476578  -0.85454225   -19.335035   -208.22685   -1.0608573   -19.310118    1.3831509  -0.89353514   -8.5966775    -208.2203   -1.0735616   -9.0603148    197.12787    -1.057376   -19.256882   -1.4177091   -1.0118345   -419.11231 
   20900    421.49374    1255.6205    1166.6668    67.667694    331.14175    1.2310467  -0.90580349   -19.401611   -208.22524   -1.0536426   -19.249275    1.3126379   -0.9492846   -8.6443015   -208.19459   -1.0578855   -9.0362723    197.07351   -1.0717138    -19.24177   -1.4201971   -1.0117902   -419.11597 
   21000    421.49374    1230.0289    1195.0555    16.688975    330.45474    1.2411475  -0.92285752   -19.421086    -208.2175   -1.0399208   -19.269135    1.3165217  -0.94028609   -8.6654047   -208.19958   -1.0513596   -9.0812928    197.10484   -1.0551471   -19.337464   -1.4226851    -1.011746   -419.11963 
   21100    421.49374    1202.2025    1179.0285    16.481235    331.31706    1.2351899  -0.94946354   -19.397537   -208.20005   -1.1247758   -19.312324    1.3439285   -1.0017834   -8.6759688   -208.18942   -1.1338661   -9.0893438    197.12374   -1.0541244    -19.32716   -1.4251731   -1.0117017   -419.12329 
   21200    421.49374     1225.326    1159.6659    24.093386    330.68602    1.2664406   -0.9540768   -19.300094   -208.22234   -1.0771273   -19.291225    1.3798694  -0.98503826   -8.5441326   -208.23256   -1.0896607   -9.0300313    197.19264   -1.0667837   -19.379549   -1.4276612   -1.0116575   -419.12695 
   21300    421.49374    1203.8534    1160.7742    18.508327    330.74747    1.1943868  -0.95852907   -19.222502   -208.23052   -1.0215825    -19.38349    1.3263515   -1.0186443   -8.4843465   -208.26234   -1.0000294   -9.1425102    197.16545   -1.0412469   -19.431195   -1.4301492   -1.0116132    -419.1306 
   21400    421.49374    1194.6103    1124.0407   -63.196302    331.52865    1.1291984  -0.94767545   -19.197977   -208.21596  -0.99872257   -19.434482    1.2415738   -1.0287483   -8.4732799   -208.23661  -0.95672183   -9.2571037    197.14037   -1.0505577   -19.466987   -1.4326372    -1.011569   -419.13426 
   21500    421.49374    1183.3268    1154.6669   -49.865223    330.53052     1.144839  -0.94274928   -19.140995   -208.15851  -0.96992349   -19.485118    1.2093695   -1.0328527   -8.4130792   -208.12781  -0.96074692   -9.3276352    197.16295  -0.96321381    -19.46389   -1.4351252   -1.0115247   -419.13792 
   21600    421.49374    1130.5748     1091.602   -79.897142     331.3649    1.1536168  -0.94988497   -19.190108   -208.12366  -0.99016441   -19.581295    1.1761808   -1.0007679   -8.4300848    -208.0696  -0.97843017   -9.3921167    197.11557  -0.97345616   -19.458979   -1.4376133   -1.0114805   -419.14158 
   21700    421.49374    1142.3441    1121.1685   -114.27225    330.89047    1.1252835  -0.94289801   -19.107232   -208.13034    -1.045993   -19.607378    1.1233982  -0.98743013   -8.4287736   -208.08186   -1.0548737   -9.4285234    197.16534  -0.93404103   -19.488492   -1.4401013   -1.0114363   -419.14524 
   21800    421.49374    1204.4509    1117.1488   -42.506766    330.15052    1.1458339   -1.0066925    -19.08092   -208.11879     -1.05216   -19.587178    1.1485392   -1.1366979   -8.3674106   -208.13455   -1.1001462    -9.382798    197.21785  -0.89323548   -19.578102   -1.4425893    -1.011392    -419.1489 
   21900    421.49374    1139.0518    1102.9593   -127.39319    330.49567    1.1514927   -1.0317096   -19.074169    -208.1749   -1.0119571   -19.512522    1.2360576   -1.1012067   -8.3458062   -208.22798   -1.0113514   -9.3087508    197.20741  -0.95208255   -19.609695   -1.4450773   -1.0113478   -419.15256 
   22000    421.49374    1139.9994    1112.5231   -94.284098    330.31576    1.1551354  -0.94579471   -19.021374   -208.16619   -1.0088138   -19.508948     1.335187  -0.93063999   -8.2897056     -208.172   -1.0158224   -9.3064893    197.13654   -0.9953569   -19.656147   -1.4475654   -1.0113035   -419.15622 
   22100    421.49374    1136.3332    1101.1934   -125.85853    330.95651    1.1718718  -0.99178093   -18.882297    -208.1653   -1.0205116   -19.572692     1.337704   -0.9890725   -8.0508415   -208.15181   -1.0266128   -9.3661651    197.18273  -0.96646521   -19.643991   -1.4500534   -1.0112593   -419.15988 
   22200    421.49374    1115.6333    1065.9499   -104.71452    331.25521    1.1857864   -1.0191326   -18.804053   -208.13712   -1.0435213   -19.597497    1.2736459  -0.99927055   -7.9732203   -208.12643   -1.0582054   -9.4055366    197.18836  -0.94978939   -19.640506   -1.4525414    -1.011215   -419.16353 
   22300    421.49374     1086.289    1071.4716   -143.01124     331.2183    1.1750318   -1.0718767   -18.767544   -208.17052   -1.0333142    -19.65615    1.2493136   -1.1584452   -8.0374023   -208.19897    -1.045544   -9.4792634     197.2007  -0.92449316   -19.641796   -1.4550294   -1.0111708   -419.16719 
   22400    421.49374     1131.283    1074.1022   -131.21518    330.30264    1.1825376   -1.0062584   -18.681404   -208.12969   -1.0474142    -19.66275    1.3023593   -1.1192727   -7.9584854   -208.15945   -1.1109582    -9.465681    197.18956  -0.93746349   -19.619747   -1.4575175   -1.0111266   -419.17085 
[...]
  999200    421.49374    1257.4706    1226.6495    76.135646    331.72701   -23.135923  -0.43067691   -55.850291   -232.58758  -0.58937225   -55.505137    -23.08176  -0.46876812   -45.237759   -232.59932  -0.58236882   -45.358434     172.7197  -0.55166413   -55.526557   -25.760543  -0.57894863   -454.91013 
  999300    421.49374    1239.5782    1250.9303    89.490062    331.41768   -23.176722  -0.41144941     -55.8095   -232.49564  -0.59836485   -55.525533    -23.13335  -0.48807792   -45.219347   -232.51359  -0.61412287    -45.35057    172.72049  -0.56534863   -55.532617   -25.763031  -0.57890439   -454.91379 
  999400    421.49374    1237.2647    1220.1355    62.658201      331.212   -23.192464  -0.39339665   -55.792934   -232.47866  -0.57185923   -55.464864   -23.104386  -0.47986948   -45.225732   -232.47903   -0.5750846   -45.294199    172.77353  -0.53945092   -55.581132   -25.765519  -0.57886014   -454.91745 
  999500    421.49374    1217.7975    1204.6337    26.261708    331.35872   -23.176742  -0.39420672   -55.857991   -232.48188  -0.52501281   -55.460324    -23.08457  -0.51441874   -45.270916   -232.45777   -0.5281697   -45.336009    172.81095  -0.52939282   -55.524735   -25.768007   -0.5788159   -454.92111 
  999600    421.49374    1232.5841    1220.7263   -30.753103    331.07555   -23.161823  -0.35655881   -55.897687   -232.43337  -0.51519974   -55.523417   -23.090641  -0.47918184   -45.360117   -232.38289  -0.49364932   -45.377838      172.838  -0.51171607    -55.47695   -25.770495  -0.57877165   -454.92476 
  999700    421.49374     1240.818     1211.374    7.9387033    331.04601   -23.176662  -0.37363211   -55.904146   -232.40656  -0.50935748   -55.566059   -23.069747  -0.47143205   -45.298681   -232.37503  -0.50234981   -45.409627    172.85701  -0.56440139   -55.427739   -25.772983  -0.57872741   -454.92842 
  999800    421.49374    1209.8447    1195.3949   -10.602712    331.44151   -23.136863  -0.32511464   -55.884464   -232.40074  -0.51370818   -55.552082   -23.047374  -0.37238882   -45.325278   -232.35599  -0.51655178   -45.388625    172.85964  -0.52150521   -55.469203   -25.775471  -0.57868316   -454.93208 
  999900    421.49374    1253.4811     1194.762    17.958127     331.1614   -23.125866  -0.35491658    -55.84976   -232.42677  -0.60228798   -55.464439    -23.06518  -0.38472576   -45.303757   -232.40253  -0.57183755   -45.307588    172.85561   -0.5479691   -55.502082   -25.777959  -0.57863892   -454.93574 
 1000000    421.49374    1220.7654     1199.671    10.042329     331.3966   -23.120416  -0.37745906   -55.857673   -232.41316  -0.60765023    -55.48601   -23.032279  -0.36773814   -45.288644   -232.37354  -0.59012514   -45.304192    172.83452  -0.52568278   -55.533146   -25.780447  -0.57859468    -454.9394 
 1000100    421.49374    1194.4138    1186.9556    36.907656    330.81895   -23.096794   -0.3013707   -55.866946   -232.47093  -0.63698467   -55.511588   -22.960117  -0.28613912   -45.283288   -232.42007  -0.64807532   -45.369028    172.84752  -0.57639425   -55.511689   -25.782935  -0.57855043   -454.94306 
 1000200    421.49374    1240.3134    1216.9321    43.209758    331.06163   -23.082031  -0.28967564   -55.847271   -232.50792  -0.63938974   -55.477303   -22.928969   -0.2797956   -45.267353   -232.48823  -0.65810443   -45.282843    172.81169  -0.60056747   -55.433685   -25.785423  -0.57850619   -454.94672 
 1000300    421.49374    1230.4019    1226.8621    35.757484    331.18277   -23.052439  -0.31494318   -55.847175   -232.54546  -0.59687136   -55.479558   -22.885535  -0.31383208   -45.278618   -232.54937  -0.57000453    -45.30458    172.83709  -0.58137978   -55.434654   -25.787911  -0.57846194   -454.95038 
 1000400    421.49374     1252.755    1234.6551    44.724736    330.78142    -23.07512  -0.32291221   -55.809827   -232.49819  -0.58591683   -55.435241   -22.900838  -0.37454972   -45.228318   -232.48873  -0.57389088    -45.29389    172.77709  -0.55464577   -55.403185   -25.790399   -0.5784177   -454.95403 
 1000500    421.49374    1254.5969      1213.94   -36.981825    331.15004   -23.043302  -0.32373909   -55.764578   -232.47897  -0.60431212    -55.42082   -22.905687  -0.37067319   -45.173736   -232.48456  -0.62307295   -45.294401    172.76194  -0.50394319   -55.371827   -25.792887  -0.57837345   -454.95769 
 1000600    421.49374    1199.4042      1147.14   -51.887705     331.5336   -23.001288  -0.34272977   -55.732596   -232.50273  -0.56812372   -55.409914   -22.856958  -0.38202142   -45.134018   -232.48967  -0.58242089   -45.244712    172.74751  -0.51683921   -55.404323   -25.795375  -0.57832921   -454.96135 
 1000700    421.49374    1188.9768    1155.8953   -79.741051    331.85518    -22.98758  -0.32870576   -55.731122   -232.50539  -0.53487146   -55.400325   -22.855945  -0.35070602   -45.131577   -232.51295  -0.51975553   -45.215804    172.78706  -0.56057812   -55.409602   -25.797863  -0.57828497   -454.96501 
 1000800    421.49374    1188.2056    1125.6992   -108.09866    331.37859   -23.021305    -0.319817   -55.720512   -232.52893  -0.52105747   -55.420062   -22.895935  -0.34321708    -45.11954   -232.55692  -0.52954674   -45.235841    172.78285  -0.55581394   -55.443743   -25.800351  -0.57824072   -454.96867 
 1000900    421.49374    1147.2818    1131.4111   -74.335725    331.07387   -23.068069  -0.31979002   -55.739861   -232.51291  -0.53499587   -55.406739   -22.940664  -0.33121856   -45.117633   -232.54084  -0.51848215    -45.24536    172.81473  -0.54350769   -55.458086    -25.80284  -0.57819648   -454.97233 
 1001000    421.49374     1183.136    1099.3918   -124.53681    330.91278   -23.050107  -0.30369296   -55.769074   -232.48997  -0.51642131   -55.387922   -22.943487  -0.33497917   -45.163589   -232.50085  -0.54007765   -45.185142     172.8144  -0.53428338   -55.469267   -25.805328  -0.57815223   -454.97599 
 1001100    421.49374    1110.9262    1086.6734   -182.22926    331.63003   -23.029231  -0.34119933    -55.81279   -232.50382  -0.53017714   -55.380257   -22.883216  -0.38941717   -45.261393    -232.5328  -0.52341401    -45.19439    172.81191  -0.61130019   -55.435843   -25.807816  -0.57810799   -454.97965 
 1001200    421.49374    1138.9733     1084.129   -147.71108    330.54234   -23.033276  -0.39558808   -55.866558    -232.4685  -0.50009006   -55.362122   -22.926585  -0.45989959   -45.352213   -232.47454  -0.44975286   -45.215884    172.77947  -0.62258528   -55.426436   -25.810304  -0.57806374   -454.98331 
 1001300    421.49374    1126.3811    1101.3111   -197.30862    330.84882   -23.022431  -0.44357203   -55.855273   -232.47919  -0.50368115   -55.417859   -22.922865   -0.5081965   -45.280087   -232.43616   -0.4988033   -45.266792    172.80571  -0.59983438    -55.39454   -25.812792   -0.5780195   -454.98696 
 1001400    421.49374    1088.2845    1073.3926   -219.43721    331.19633   -22.998517   -0.4454562   -55.851763   -232.46189  -0.63394437   -55.388831   -22.880232  -0.56463638   -45.280913   -232.44206  -0.64706209   -45.223795    172.78279  -0.58343778   -55.320725    -25.81528  -0.57797526   -454.99062 
 1001500    421.49374    1082.0202    1074.9565   -215.15196    330.73346   -23.002638  -0.51886481   -55.844657   -232.50531  -0.64156801   -55.376999   -22.869374  -0.60799066   -45.267572   -232.49251  -0.66915947   -45.169354    172.80623  -0.55300207   -55.357201   -25.817768  -0.57793101   -454.99428 
 1001600    421.49374    1094.5433    1081.8984   -220.50993    330.94629   -23.022578  -0.52801771   -55.851027   -232.49937  -0.60829498   -55.418238     -22.9071  -0.55475532   -45.269651   -232.47622  -0.58542784   -45.235733    172.80636  -0.60588304   -55.386325   -25.820256  -0.57788677   -454.99794 
 1001700    421.49374    1099.1016    1087.0232   -238.16751    331.13181   -23.026751  -0.51661015   -55.824238   -232.46016   -0.6087227   -55.396681   -22.903786  -0.51615251   -45.227025   -232.48573  -0.60009964   -45.223679    172.81577  -0.65979838   -55.423691   -25.822744  -0.57784252    -455.0016 
 1001800    421.49374    1097.0443    1088.5548    -187.0927    330.85562   -23.063995  -0.51572288   -55.842995   -232.46925  -0.65327755   -55.372484   -22.968734  -0.51202032    -45.24943   -232.50099  -0.64940992   -45.244918    172.82259  -0.65799564   -55.445449   -25.825232  -0.57779828   -455.00526 
 1001900    421.49374    1053.1486    1057.7649   -266.24176    331.03027   -23.085845  -0.48843752   -55.758979   -232.47682  -0.64711473   -55.412796   -22.965665  -0.52861412   -45.155465   -232.47042  -0.62725951    -45.25984    172.80312  -0.62453455   -55.535038    -25.82772  -0.57775403   -455.00892 
 1002000    421.49374    1111.7865    1113.9406    -228.4046    330.66304   -23.121629  -0.48348734   -55.827456   -232.48787  -0.64056041   -55.480401   -23.048423  -0.50844355   -45.258233   -232.51649  -0.66187567   -45.289449    172.77643  -0.62530543   -55.549572   -25.830208  -0.57770979   -455.01258 
 1002100    421.49374     1057.057    1050.6784   -227.47052    331.82018   -23.143289  -0.49514752   -55.835316   -232.48918  -0.64970587   -55.495148   -23.052373  -0.52606918    -45.22812   -232.50127   -0.7076677    -45.32715    172.78681  -0.65234891    -55.50949   -25.832696  -0.57766555   -455.01623 
 1002200    421.49374    1064.9046    1043.7161    -258.7236    331.46496   -23.148715  -0.46699874    -55.92296    -232.4674  -0.63648268   -55.554108   -23.071885  -0.51011975   -45.328735   -232.46009  -0.65860444   -45.397111    172.81346  -0.61594718   -55.462589   -25.835184   -0.5776213   -455.01989 
 1002300    421.49374    1033.3392    1038.2102   -247.64114    331.77202   -23.177924  -0.43816143   -55.973141    -232.4763  -0.60651786   -55.573151   -23.011902  -0.49519217   -45.421456   -232.46818  -0.60765753   -45.406534    172.81714  -0.64864386   -55.512088   -25.837672  -0.57757706   -455.02355 
 1002400    421.49374    1045.0125    1042.0271   -264.77445    331.19946   -23.149682  -0.39223963   -55.951332   -232.45772  -0.59187699   -55.504767   -23.002465  -0.45594665   -45.397493   -232.44526  -0.57011651    -45.37365    172.78776   -0.6716042   -55.528374    -25.84016  -0.57753281   -455.02721 
 1002500    421.49374    1054.3102    1053.1682   -276.61643    331.26447   -23.194139  -0.39109883   -55.900698   -232.50634  -0.57088026   -55.478769   -23.078657  -0.39961273   -45.299827   -232.46302  -0.58832825   -45.336903    172.76769  -0.68936567   -55.525144   -25.842648  -0.57748857   -455.03087 
 1002600    421.49374    1047.9718    1094.6334    -230.1733    330.92891   -23.229852  -0.41207744   -55.915314   -232.51997  -0.55515552   -55.538329   -23.097915  -0.43317554   -45.307948   -232.52484  -0.60665498    -45.37157    172.74306    -0.609786   -55.521956   -25.845136  -0.57744433   -455.03453 
 1002700    421.49374    1075.6478     1028.781     -255.994    331.13401   -23.252207  -0.42702856   -55.943419   -232.54223  -0.53277503   -55.522058   -23.134421  -0.51381615   -45.374805   -232.54065  -0.55308806   -45.365771    172.77988  -0.57047831   -55.527802   -25.847624  -0.57740008   -455.03819 
 1002800    421.49374    1048.8957    1074.4834   -276.79359    331.65387   -23.278922   -0.3943581   -55.920224   -232.55681  -0.48162959   -55.483736   -23.164059  -0.40199978   -45.409268   -232.59527  -0.43963209   -45.300053    172.74295  -0.54101385   -55.532227   -25.850112  -0.57735584   -455.04185 
 1002900    421.49374    1057.6212      1080.05   -263.36547    331.32035   -23.228722  -0.41424931   -55.935963   -232.59027  -0.45794161   -55.490919   -23.146632  -0.45189672    -45.39274   -232.64218  -0.42656875   -45.347718    172.75456  -0.55213208   -55.541978     -25.8526  -0.57731159   -455.04551 
 1003000    421.49374    1042.4212    1076.0636   -238.14793    330.38556   -23.201114  -0.42523979   -55.945431   -232.56637  -0.46069505   -55.473807   -23.118589  -0.50322391    -45.33373   -232.58432  -0.45765524   -45.324285    172.72234  -0.50625478   -55.486373   -25.855088  -0.57726735   -455.04916 
 1003100    421.49374    996.94003    1012.0537   -322.08866    331.43738   -23.164405  -0.41477875   -55.942863   -232.53563  -0.47662452   -55.497527   -23.043173  -0.48510487    -45.31882   -232.51503  -0.50568197   -45.306088    172.72796  -0.46195864   -55.421511   -25.857576   -0.5772231   -455.05282 
 1003200    421.49374    999.86822    999.64293   -347.06172    332.00005   -23.172913  -0.44463122   -55.940063   -232.55296  -0.49387514   -55.455398     -23.0613  -0.48083508   -45.315145   -232.52706  -0.53004717   -45.292939    172.76415  -0.51969406   -55.429404   -25.860064  -0.57717886   -455.05648 
 1003300    421.49374    1021.8169    1032.4246   -342.65509    331.20925   -23.167869  -0.46120478   -55.964222   -232.54017  -0.50919289   -55.432526   -23.059967  -0.46949431   -45.370512   -232.53283  -0.49966119   -45.289958    172.74891  -0.52324804   -55.429278   -25.862552  -0.57713462   -455.06014 
 1003400    421.49374    999.52839    1026.4687   -334.74912    331.13253   -23.166407  -0.45780466   -55.936732   -232.52925  -0.55253554   -55.439688   -23.101627  -0.49362424   -45.338887   -232.52523  -0.55316431    -45.24125    172.75291  -0.51573341   -55.415021    -25.86504  -0.57709037    -455.0638 
 1003500    421.49374    1004.7429    1015.3822   -323.46872    330.62124   -23.156313  -0.43487915   -55.935774   -232.54627  -0.56969343   -55.476955   -23.086593  -0.48034012   -45.406389   -232.51052  -0.52223424    -45.33499    172.80464  -0.50807075   -55.406588   -25.867528  -0.57704613   -455.06746 
 1003600    421.49374    986.65314    1003.6593   -327.94884      331.213   -23.155237   -0.4030741   -55.934459   -232.48903  -0.54534589   -55.461912   -23.071462  -0.47671048   -45.358049   -232.45801  -0.47848391   -45.308081    172.77678  -0.53959971   -55.409091   -25.870016  -0.57700188   -455.07112 
 1003700    421.49374    996.94908    1014.7208   -366.78323    331.00254    -23.19364  -0.35464388   -55.905552   -232.51057  -0.54679097   -55.485217   -23.071823  -0.39330948   -45.351078   -232.48217  -0.51705677   -45.290509     172.7878  -0.54666869   -55.441315   -25.872504  -0.57695764   -455.07478 
 1003800    421.49374    1018.0464    1009.7195   -354.93503    330.87788   -23.201127  -0.34829476   -55.891177   -232.49676  -0.55490308   -55.494517   -23.100607  -0.34704611   -45.324613   -232.46745  -0.55479068    -45.31376    172.76345  -0.51524996   -55.458066   -25.874992  -0.57691339   -455.07843 
 1003900    421.49374    1042.7868    1009.5901   -309.54275    330.71785   -23.220499  -0.32215171   -55.868232    -232.5462  -0.56682179   -55.472555   -23.113191   -0.3273129   -45.269721   -232.52183   -0.5720682   -45.303368    172.76068  -0.57863995   -55.458919    -25.87748  -0.57686915   -455.08209 
 1004000    421.49374    1022.9164    976.02839   -356.88323    331.10399   -23.221658  -0.31308663   -55.845144   -232.57113  -0.64270539   -55.426954   -23.126662  -0.29672137   -45.248844   -232.57106  -0.64977901   -45.258248    172.69328   -0.6066303    -55.46875   -25.879968  -0.57682491   -455.08575 
 1004100    421.49374     983.8614    983.56828   -348.17645    331.65604   -23.176559   -0.3301142   -55.861783   -232.61495  -0.64470986    -55.43518   -23.056414  -0.38070741   -45.276944   -232.62173    -0.664663   -45.252428    172.67572  -0.60144525   -55.475246   -25.882456  -0.57678066   -455.08941 
 1004200    421.49374    1016.7042    997.74261   -292.96861    331.26821   -23.143813  -0.30523151   -55.835579   -232.61009  -0.63176202   -55.491249   -23.022544  -0.38571688   -45.268483   -232.61797  -0.65835359   -45.307734    172.64834  -0.63174242    -55.49714   -25.884944  -0.57673642   -455.09307 
 1004300    421.49374    1061.5514    1042.2889   -285.00462    330.66473   -23.103367  -0.36391733   -55.868125   -232.61132   -0.6662957   -55.486758    -22.99416  -0.41875976   -45.251469    -232.6132  -0.60909733   -45.341615    172.61607  -0.69836705   -55.491115   -25.887432  -0.57669217   -455.09673 
 1004400    421.49374    1064.7115    1035.9937   -253.10203    330.98014   -23.115188  -0.41891976   -55.901009   -232.64395  -0.68766287   -55.483334   -23.037841  -0.46367534   -45.251175    -232.6254  -0.67077411   -45.380498      172.622  -0.67487755   -55.522886    -25.88992  -0.57664793   -455.10039 
 1004500    421.49374    1060.0761    1048.5282   -232.07476    330.65037   -23.107129  -0.46295952   -55.879968    -232.6352  -0.67739961   -55.467041   -23.040741  -0.52900202    -45.27196   -232.62053  -0.71692292   -45.357838    172.61345  -0.62660322   -55.509575   -25.892408  -0.57660368   -455.10405 
 1004600    421.49374     1052.212    1036.7837   -266.59686    331.02612   -23.106838   -0.5350296     -55.9258   -232.66585   -0.6540334   -55.550391    -23.03254  -0.59979173   -45.346582   -232.66981  -0.68778364   -45.409288    172.63456  -0.67964969    -55.54404   -25.894896  -0.57655944    -455.1077 
 1004700    421.49374    1098.4003      1047.27   -231.12951    330.63548   -23.152329  -0.50939389   -55.936762   -232.60201  -0.65733895   -55.533531   -23.069267  -0.54709555   -45.356631   -232.59603  -0.70842562   -45.371342    172.69228  -0.59731315   -55.544036   -25.897384   -0.5765152   -455.11136 
 1004800    421.49374    1020.1901    1040.3799   -261.95677    331.15354   -23.222445  -0.51705746   -55.975241   -232.55547  -0.67934105   -55.554882   -23.071345   -0.6063936   -45.445464   -232.56085  -0.70637529   -45.394164    172.74375  -0.58324371   -55.580213   -25.899872  -0.57647095   -455.11502 
 1004900    421.49374    1078.0904    1038.1977   -284.23277    330.76548    -23.23318  -0.48543327   -55.998189   -232.57926  -0.67371017   -55.591273   -23.098271  -0.57934395   -45.461437   -232.58244  -0.70353763   -45.399344    172.76033  -0.54118993   -55.517755   -25.902361  -0.57642671   -455.11868 
 1005000    421.49374    1090.5939    1043.5091   -246.73062    331.28719   -23.184174  -0.45590541   -55.933346   -232.56271  -0.67764643   -55.592307   -23.051432  -0.52459904   -45.389755   -232.58183  -0.73095312   -45.384821    172.70651  -0.60921553   -55.525435   -25.904849  -0.57638246   -455.12234 
Loop time of 5788.1 on 512 procs for 1000000 steps with 346761 atoms

Performance: 29.854 ns/day, 0.804 hours/ns, 172.768 timesteps/s
99.9% CPU use with 512 MPI tasks x no OpenMP threads

MPI task timing breakdown:
Section |  min time  |  avg time  |  max time  |%varavg| %total
---------------------------------------------------------------
Pair    | 1262.9     | 3727.2     | 4000.8     | 864.6 | 64.40
Neigh   | 1.8451     | 33.348     | 36.481     | 129.4 |  0.58
Comm    | 588        | 750.81     | 1421.8     | 598.6 | 12.97
Output  | 4.7735     | 5.0357     | 5.2988     |   1.1 |  0.09
Modify  | 38.049     | 42.67      | 57.918     |  44.8 |  0.74
Other   |            | 1229       |            |       | 21.23

Nlocal:    677.268 ave 729 max 0 min
Histogram: 32 0 0 0 0 0 0 0 0 480
Nghost:    2823.32 ave 3178 max 506 min
Histogram: 16 16 0 0 0 0 16 16 0 448
Neighs:    47722.2 ave 52273 max 0 min
Histogram: 32 0 0 0 0 0 0 0 2 478

Total # of neighbors = 24433782
Ave neighs/atom = 70.4629
Neighbor list builds = 12456
Dangerous builds = 0



Total wall time: 1:39:00
 70.4738
Neighbor list builds = 13263
Dangerous builds = 0



Total wall time: 1:39:03
5
Other   |            | 1261       |            |       | 21.72

Nlocal:    677.242 ave 728 max 0 min
Histogram: 16 0 0 0 9 23 0 0 0 464
Nghost:    2803.16 ave 3147 max 0 min
Histogram: 16 0 0 0 32 0 0 0 0 464
Neighs:    47714.5 ave 52512 max 0 min
Histogram: 16 0 0 16 16 0 0 0 0 464

Total # of neighbors = 24429835
Ave neighs/atom = 70.4541
Neighbor list builds = 13383
Dangerous builds = 0



Total wall time: 1:39:28
