LAMMPS (16 Feb 2016)
# ------------------------ INITIALIZATION ----------------------------
echo both
#log		log.c
units           metal
dimension       3
boundary        p p p
atom_style      atomic
shell         mkdir  cfg
WARNING: Shell command 'mkdir' failed with error 'File exists' (../input.cpp:1126)
shell         mkdir  dump
WARNING: Shell command 'mkdir' failed with error 'File exists' (../input.cpp:1126)


# ----------------------- ATOM DEFINITION & Force Field -------------
read_data     NPT_relaxed.data       ##Read file dumped from simulation 1
  orthogonal box = (-20.2074 -8.08294 -121.036) to (20.2074 8.08294 20.4152)
  8 by 2 by 16 MPI processor grid
  reading atoms ...
  3280 atoms
  reading velocities ...
  3280 velocities

pair_style      eam/alloy
pair_coeff  	  * * Al_wkg_MSMSE_2009.set Al

#---------------------- DEFINE Laser GERION and GROUP ----------------
region       R1  block -75  75  INF  INF  INF  5  units box
group        G1 region R1
3280 atoms in group G1
group        G2 subtract all G1
0 atoms in group G2


#define     temperature/pressure calculation  group
variable    x1atom atom "x>=0  &&  x<4 &&  z>-40 && z<1"     ##NEW!!!!!!!!!!!!
variable    x2atom atom "x>=-20.21  &&  x<-16.21 &&  z>-40 && z<1"
variable    x3atom atom "x>=0  &&  x<4 &&  z>-20 && z<1"
variable    x4atom atom "x>=-20.21  &&  x<-16.21 &&  z>-20 && z<1"
variable    x5atom atom "x>=196  &&  x<200 &&  z>-40 && z<1"

group       x1atom variable x1atom
142 atoms in group x1atom
group       x2atom variable x2atom
153 atoms in group x2atom
group       x3atom variable x3atom
79 atoms in group x3atom
group       x4atom variable x4atom
83 atoms in group x4atom
group       x5atom variable x5atom
0 atoms in group x5atom


compute      COM1x x1atom com
compute      COM2x x2atom com
compute      COM3x x3atom com
compute      COM4x x4atom com
compute      COM5x x5atom com

compute      COMall all com

#Temperature profile
#variable      Tprofile atom 300*(1+(step/5000)*2.5*exp(z/40))
variable      Tprofile atom 300*(1+(step/5000)*2.5*exp(z/75))

# ------------------------- SETTINGS ---------------------------------
thermo          100
thermo_style    custom step lx pxx pyy pzz temp c_COM1x[1] c_COM1x[2] c_COM1x[3] c_COM2x[1] c_COM2x[2] c_COM2x[3] c_COM3x[1] c_COM3x[2] c_COM3x[3] c_COM4x[1] c_COM4x[2] c_COM4x[3]  c_COM5x[1] c_COM5x[2] c_COM5x[3] c_COMall[1] c_COMall[2] c_COMall[3]

timestep       0.002


compute dispall all displace/atom
# ---------------- Run Laser Material Interaction --------------------
#dump          1 all custom 1000 dump/z1dump.atom id type x y z c_dispall[1]  c_dispall[2]  c_dispall[3] c_dispall[4]
#dump          2 all cfg 100 cfg/*.cfg mass type xs ys zs
#dump_modify   2 element Al

#relax for 2 PS
#fix           1 all nvt temp 300.0 300.0 0.1
#run  1000
#unfix         1

fix           1  all nve
fix           3temp  G1  langevin  v_Tprofile  0  0.1  378411   #TEST ALL
run           5000
Neighbor list info ...
  1 neighbor list requests
  update every 1 steps, delay 10 steps, check yes
  max neighbors/atom: 2000, page size: 100000
  master list distance cutoff = 8.365
  ghost atom cutoff = 8.365
  binsize = 4.1825 -> bins = 10 4 34
Memory usage per processor = 0.0664444 Mbytes
Step Lx Pxx Pyy Pzz Temp COM1x[1] COM1x[2] COM1x[3] COM2x[1] COM2x[2] COM2x[3] COM3x[1] COM3x[2] COM3x[3] COM4x[1] COM4x[2] COM4x[3] COM5x[1] COM5x[2] COM5x[3] COMall[1 COMall[2 COMall[3 
       0    40.414702    1597.6739    1265.5886    1478.2315    298.11549    1.9760959  -0.87904657   -18.681046   -18.152973   -1.1249992   -19.495897     2.247293  -0.84939683   -10.068876   -18.011362   -1.1595646   -10.333548            0            0            0   -1.0103676   -1.0103676   -40.206891 
     100    40.414702    1483.1107    1388.4263    1372.4418     310.0321    1.9873584  -0.88065881   -18.663675   -18.135334   -1.1446087   -19.460936    2.2881326  -0.87949588   -10.046987   -18.030188   -1.1719353   -10.304105            0            0            0   -1.0093155   -1.0176247   -40.200591 
     200    40.414702     1561.821    1597.1083     1568.233     320.3165     1.970928  -0.90183255   -18.659597   -18.144922   -1.1069167   -19.462312    2.2774877  -0.90933232   -10.057432   -17.995666   -1.1584057   -10.274557            0            0            0   -1.0160394   -1.0151163   -40.199286 
     300    40.414702    1669.0798    1731.6798    1137.9622    320.73999    1.9768707  -0.93436674   -18.653629   -18.139249   -1.0660824   -19.426255    2.3077843  -0.97592115   -10.038483   -17.974589    -1.104842   -10.251626            0            0            0    -1.032213   -1.0262072   -40.191745 
     400    40.414702    2263.3252    2269.7376    1563.9811    334.49255    1.9678572  -0.97827772   -18.601239   -18.130642   -1.0657184   -19.412561    2.2933634   -1.0257971   -9.9476612   -17.967069   -1.0845189     -10.1975            0            0            0   -1.0374062   -1.0274303   -40.179593 
     500    40.414702    1488.6423    1433.9236    804.77412    340.21974    1.9501887  -0.95693389   -18.585056   -18.102206   -1.0872576   -19.388884    2.2487086  -0.96327328   -9.9642344    -17.94044   -1.1038884   -10.126344            0            0            0   -1.0411025   -1.0217817   -40.176503 
     600    40.414702    2182.0282    2212.1471    1519.1359    347.12512     1.979594  -0.94322119   -18.615596   -18.137465   -1.0858235   -19.421236    2.2724243  -0.96610222   -10.040442   -17.928684   -1.1326621   -10.192926            0            0            0   -1.0504727    -1.010998   -40.176982 
     700    40.414702    2774.7989    3090.3181    2413.6896     361.0596    1.9438779  -0.85958269   -18.613897   -18.141425   -1.0663597   -19.405654    2.2732318  -0.83541349   -10.028919   -17.975453   -1.0905311   -10.168125            0            0            0   -1.0616852    -1.000635   -40.175389 
     800    40.414702    2711.1301    2815.3326    1921.7605    376.25262    1.9543391  -0.86543793   -18.602486   -18.147545   -1.0714185   -19.393145    2.2957102  -0.84795241   -10.008155   -17.952796   -1.1362817   -10.123269            0            0            0   -1.0724487  -0.98330051   -40.177168 
     900    40.414702    3163.8988     2868.881    1835.8027    386.84947     1.970253  -0.83719508    -18.62444   -18.169575   -1.0809856   -19.345334    2.3068754  -0.83021581   -10.017671   -18.011702   -1.0994261    -10.09021            0            0            0   -1.0711378  -0.97876696   -40.175169 
    1000    40.414702    2670.2223    2670.9625     1368.316    384.65623    1.9803811  -0.83475392   -18.550435   -18.125374   -1.0891898   -19.362166    2.3552142  -0.77618949   -9.8908609   -17.947446   -1.1133352   -10.109369            0            0            0   -1.0570702  -0.97931366   -40.181278 
    1100    40.414702    2844.3843    2688.8225    1479.2542    396.70938    1.9910163  -0.89908806   -18.542929   -18.107389   -1.1478222   -19.304211    2.3560241   -0.8726915   -9.8651128   -17.897823   -1.2105054   -10.046182            0            0            0   -1.0539673  -0.98835579   -40.170244 
    1200    40.414702    3168.4513    3109.7683    1340.3491     407.7895    1.9991801  -0.86057397   -18.524509   -18.099675   -1.1645701   -19.308509    2.3589337  -0.83074651   -9.8659272   -17.900774   -1.2222513   -10.031383            0            0            0   -1.0609533  -0.99081588   -40.174806 
    1300    40.414702     3190.392    3219.7504    1858.3927    412.97481    1.9835355  -0.86550962   -18.513648   -18.129419   -1.1239733   -19.340951     2.353521  -0.83738999   -9.8373113    -17.93399   -1.1685668   -10.069601            0            0            0   -1.0662015  -0.99632275   -40.191774 
    1400    40.414702    3195.5509    3064.6464    1232.9265    424.47283    1.9412407  -0.89385346   -18.538434   -18.125208   -1.0935272   -19.305767    2.3092774  -0.87084868   -9.8514895   -17.911236   -1.1307542   -10.012551            0            0            0   -1.0602025  -0.98677929   -40.196208 
    1500    40.414702    3658.2248    3795.4637     1902.468    429.02673    1.9838909  -0.90716312   -18.554473   -18.113812   -1.0747571   -19.267993     2.351314  -0.89440213   -9.8850256   -17.916889    -1.087607   -9.9884788            0            0            0   -1.0529802  -0.97897242   -40.199106 
    1600    40.414702    4011.3564    3943.7237    1883.2433    434.27228    2.0081599  -0.88160969   -18.572106   -18.123733    -1.042384   -19.294059    2.3591341  -0.86857386   -9.8794477    -17.91077    -1.019739   -9.9884999            0            0            0   -1.0443285  -0.97259579   -40.204211 
    1700    40.414702    3729.5368    3900.2581    1499.2522    443.68837    2.0452432  -0.86251084   -18.553503   -18.119023   -1.0746937   -19.282123    2.4030211  -0.83580577   -9.8393103   -17.939649   -1.0706551   -9.9496031            0            0            0   -1.0386167  -0.96484391   -40.193751 
    1800    40.414702    4004.2566    3898.3751    1866.6819    461.10356    2.0007258  -0.85710087   -18.454143   -18.078145   -1.0446812   -19.272738    2.3097946  -0.85144902   -9.7686335   -17.912113   -1.0240002   -9.9653792            0            0            0   -1.0487681  -0.95768393   -40.184013 
    1900    40.414702    3826.0721    3780.8821    1353.3451    459.10517     1.999239  -0.82744416   -18.462946   -18.078094   -1.0552203   -19.275042    2.3300158  -0.83465266   -9.7157226    -17.91185   -1.0613324   -9.9711386            0            0            0   -1.0509581  -0.94187779   -40.177895 
    2000    40.414702    4459.6996    4432.4694    1912.5034    475.45702    2.0506664  -0.81626704   -18.474461   -18.103397   -1.0093772   -19.265376     2.360473  -0.81851155   -9.7193752   -17.941784  -0.99749795   -9.9810893            0            0            0   -1.0487682  -0.92839535   -40.189724 
    2100    40.414702    4478.8727    4332.2225    2147.9532    478.85732    2.0631313  -0.79811706   -18.500667   -18.040717   -1.0613613   -19.267674    2.4285093  -0.84417998     -9.76999    -17.87953   -1.0649547   -9.9993309            0            0            0   -1.0370607  -0.94771844   -40.202472 
    2200    40.414702     5129.725    4801.9885    1858.6915      497.108    2.0699752  -0.76082356   -18.456772   -18.028034   -1.0907312   -19.281059    2.4050999  -0.80207284   -9.6673301   -17.877787   -1.1137967   -10.056882            0            0            0    -1.015842  -0.96568833   -40.212388 
    2300    40.414702     5707.619    5145.8642    2091.4936    514.29105    2.0704371  -0.71362371   -18.446243   -17.994618   -1.1054079   -19.327449    2.3894018  -0.71539008   -9.6540059    -17.79168   -1.1347413    -10.07434            0            0            0    -1.005041  -0.95380484   -40.214676 
    2400    40.414702    5503.5581    5306.8097    2306.8237    511.07171    2.0900599  -0.74354079   -18.423383   -17.981048   -1.0536379   -19.297922     2.436278  -0.73012872   -9.6399482   -17.820272   -1.0415551   -10.024361            0            0            0  -0.99035977  -0.94126758   -40.218536 
    2500    40.414702    5255.9751    5546.4608    2394.0299    528.62713    2.0910798  -0.83441269   -18.509458   -18.014722  -0.97693565   -19.276752    2.4325746  -0.84266727   -9.7192988   -17.836451   -1.0396877   -9.9815758            0            0            0  -0.99206087  -0.91851553   -40.233119 
    2600    40.414702    5827.1017     5803.991    2878.2022    532.25333    2.0983965  -0.77576956   -18.537047   -18.045104  -0.99642812    -19.31851     2.411151  -0.79989407   -9.7735241   -17.866204    -1.018258   -9.9993021            0            0            0  -0.98690298  -0.89698352   -40.249371 
    2700    40.414702     6121.852    6238.1556     3312.582     556.8339    2.0548208  -0.75190251   -18.488407   -18.060313   -1.0180141   -19.287227    2.3567564  -0.76318815   -9.7744022   -17.897078   -1.0341504   -9.9899096            0            0            0  -0.97698163  -0.88778435   -40.272213 
    2800    40.414702    6355.1495    6000.3785    3556.8752    557.41015    2.0423096   -0.7689009   -18.527322   -18.067494   -1.0331192   -19.296438    2.3632713  -0.76701462   -9.8299638   -17.921392   -1.0072425   -9.9741665            0            0            0  -0.98538908  -0.89289941   -40.272181 
    2900    40.414702    6242.5409    5996.5973    3095.3195    562.86625    2.0401185  -0.79389899   -18.559371   -18.076438  -0.99204712   -19.236891    2.3329166  -0.81827472   -9.8732062   -17.958535   -1.0113983   -9.8974248            0            0            0   -0.9992761  -0.89407602   -40.283783 
    3000    40.414702    6474.5687    6308.3179    3053.0524    565.99784    2.0517965  -0.82763212   -18.481705   -18.085862  -0.98128206   -19.214385    2.3078539  -0.87912308   -9.7328989   -17.962026    -1.015467    -9.857837            0            0            0  -0.99073715  -0.88770436   -40.277969 
    3100    40.414702    6327.7642     6821.733    3602.1378    571.93876    2.0548822  -0.79408738   -18.528574    -18.14997  -0.91919768   -19.234339    2.3311395  -0.87544785   -9.8280065   -17.995956  -0.98410903   -9.8781336            0            0            0   -1.0078381  -0.88776007   -40.275418 
    3200    40.414702    6914.9942    6744.4949     3032.117    581.44145    2.0007895   -0.8235917   -18.496277   -18.126438  -0.95039702   -19.225669    2.3095352  -0.90278772   -9.7540009   -18.002149   -1.0324193   -9.8576912            0            0            0   -1.0172914  -0.89234927    -40.29255 
    3300    40.414702    6605.6181    6697.5181    3235.9095    599.21936    1.9631331  -0.78101891   -18.461653   -18.095688  -0.96748009   -19.198807    2.2012766  -0.80991061    -9.660338   -17.952333   -1.0249076    -9.875716            0            0            0   -1.0093613  -0.88233706   -40.297146 
    3400    40.414702    6940.9519    7130.8286    3330.5527     623.7832    1.9476768  -0.78474925   -18.399618   -18.065958  -0.90935154   -19.285015    2.1910992  -0.75939581   -9.5795403   -17.928193  -0.96459116   -9.9587722            0            0            0   -1.0100896   -0.8780092   -40.320877 
    3500    40.414702    7277.4484    7491.4512    4261.1466    594.45511    1.9739995   -0.7654117   -18.400785   -18.103481  -0.90321012   -19.318644    2.2640918   -0.7486205   -9.6273991   -18.000105  -0.95088499     -10.0549            0            0            0   -1.0180632  -0.88833272   -40.339346 
    3600    40.414702    6492.8547    7038.3512    2856.8629    622.13534    1.9618975  -0.82231084   -18.459223   -18.121073  -0.94670152   -19.327302    2.2208083  -0.84369434   -9.6629133   -18.001478   -1.0065559   -10.012757            0            0            0    -1.034894  -0.88636391   -40.354949 
    3700    40.414702    7575.5409    7838.5983    3169.0366     632.1436    1.9508598  -0.77751411   -18.473843    -18.11958    -1.006735   -19.322259    2.2465102  -0.80136022   -9.6654979   -17.963058   -1.0152601   -9.9489842            0            0            0   -1.0358246  -0.89069737   -40.366348 
    3800    40.414702    7761.4977    7479.8914    2843.2349    658.96681    1.9646473  -0.78910813   -18.458181   -18.104965  -0.97008107   -19.370816    2.2380579  -0.77203519   -9.7328836   -17.989614  -0.98988614    -9.980112            0            0            0   -1.0353202  -0.90504955    -40.37292 
    3900    40.414702    7561.8817    7837.6358    3291.3402    667.15583    1.9942535  -0.78177884   -18.440021   -18.080823  -0.97792869   -19.292364    2.2411237  -0.78383357   -9.6766415   -17.940382  -0.99765083   -9.9270278            0            0            0   -1.0305747  -0.89747343   -40.376477 
    4000    40.414702    7982.2938    7825.5466    2675.9894    662.89128    1.9862944  -0.75464336   -18.445056   -18.037995  -0.90000811   -19.277755     2.258301  -0.75727333    -9.590667   -17.878107  -0.96945663    -9.905282            0            0            0   -1.0137487  -0.86489694   -40.365469 
    4100    40.414702    7709.0877    7622.2345    3183.5312    695.31305    2.0314841  -0.72784869   -18.385887   -18.036989  -0.90701103   -19.294784    2.3402903  -0.74008187   -9.5481098   -17.872857   -1.0377817   -9.8952352            0            0            0   -1.0051728  -0.85473917   -40.363146 
    4200    40.414702    7893.8959    8076.7021    3623.9968    681.45742    1.9721238  -0.77701435    -18.39115    -18.02244  -0.97621071   -19.255634    2.2915659   -0.8378014   -9.5099645   -17.836702   -1.0551795   -9.8490697            0            0            0   -1.0150563  -0.85024934   -40.377832 
    4300    40.414702    8571.2808    8649.5906    4169.0111    689.78825    2.0356258  -0.74048239   -18.403206   -18.080844   -1.0154303   -19.296693    2.3889922  -0.84993082   -9.5287318   -17.872858   -1.1108976   -9.8846754            0            0            0   -1.0126085  -0.84601908   -40.377814 
    4400    40.414702    8631.2325    8225.2791    3350.5627     704.6853    2.0986284  -0.72678088    -18.36423   -18.037112  -0.98483743   -19.302057    2.4267058  -0.87014724   -9.5310011    -17.84099   -1.1067205   -9.8151714            0            0            0  -0.98683575  -0.85255018   -40.379693 
    4500    40.414702    8485.1808    8382.8442    3948.9373    724.74136    2.1066695  -0.75535192   -18.314402    -18.05603  -0.91978196   -19.245097    2.4486624  -0.84099256   -9.4613837   -17.827663    -1.025291   -9.7321818            0            0            0  -0.96324532  -0.84207977   -40.354857 
    4600    40.414702    8509.4837    8650.1128    4025.7819    708.46552    2.1335619  -0.72500747   -18.375646   -18.031886  -0.90751959   -19.161409    2.4735331  -0.80078452   -9.5180752   -17.867799   -1.0137362   -9.6561255            0            0            0  -0.96197296  -0.82923774   -40.344985 
    4700    40.414702    8771.7947    9307.3251    4751.6467    723.74027    2.0983687  -0.70747914   -18.376641   -18.001354  -0.92642872   -19.021454    2.4420782  -0.81701354   -9.5549503   -17.845708   -1.0343467   -9.4678907            0            0            0  -0.95344256  -0.81728219   -40.335667 
    4800    40.414702    8904.7285    8693.1172    3397.1359    738.15087    2.1316076  -0.81646486   -18.384235   -17.970606  -0.81215425   -19.073489    2.4040916  -0.92876465   -9.6183676   -17.815767  -0.83962917   -9.5568636            0            0            0  -0.93327189  -0.81542569   -40.329161 
    4900    40.414702    8961.5108     8784.798    4242.6102    768.22735    2.1098582  -0.75384528   -18.359871   -18.012299  -0.78188204   -19.169775    2.3786138  -0.84695503   -9.5369092   -17.871907  -0.87495481   -9.6926222            0            0            0  -0.93160259  -0.80602626   -40.330392 
    5000    40.414702    10513.279    9313.3026    4940.4093    744.57865    2.0978441   -0.7101673   -18.336675   -18.000882  -0.80242576   -19.107795    2.3566759   -0.7521385   -9.4298105    -17.87894  -0.87610971   -9.6067282            0            0            0  -0.93426604  -0.79619441    -40.32771 
Loop time of 3.0881 on 256 procs for 5000 steps with 3280 atoms

Performance: 279.783 ns/day, 0.086 hours/ns, 1619.117 timesteps/s
99.8% CPU use with 256 MPI tasks x no OpenMP threads

MPI task timing breakdown:
Section |  min time  |  avg time  |  max time  |%varavg| %total
---------------------------------------------------------------
Pair    | 0.0018106  | 0.96322    | 1.6006     |  58.7 | 31.19
Neigh   | 6.485e-05  | 0.0049154  | 0.010212   |   5.4 |  0.16
Comm    | 0.015623   | 0.7636     | 1.3469     |  53.3 | 24.73
Output  | 0.012036   | 0.024102   | 0.052983   |  10.8 |  0.78
Modify  | 0.025249   | 0.051585   | 0.14901    |   8.8 |  1.67
Other   |            | 1.281      |            |       | 41.47

Nlocal:    12.8125 ave 29 max 0 min
Histogram: 96 0 0 1 4 27 47 55 22 4
Nghost:    501.234 ave 885 max 0 min
Histogram: 64 0 17 15 0 22 10 0 31 97
Neighs:    881.922 ave 2182 max 0 min
Histogram: 96 0 0 10 18 22 50 42 11 7

Total # of neighbors = 225772
Ave neighs/atom = 68.8329
Neighbor list builds = 76
Dangerous builds = 0


variable  com1_x equal "c_COM1x[1]"
variable  com1_y equal "c_COM1x[2]"
variable  com1_z equal "c_COM1x[3]"
variable  com2_x equal "c_COM2x[1]"
variable  com2_y equal "c_COM2x[2]"
variable  com2_z equal "c_COM2x[3]"
variable  com3_x equal "c_COM3x[1]"
variable  com3_y equal "c_COM3x[2]"
variable  com3_z equal "c_COM3x[3]"
variable  com4_x equal "c_COM4x[1]"
variable  com4_y equal "c_COM4x[2]"
variable  com4_z equal "c_COM4x[3]"
variable  com5_x equal "c_COM5x[1]"
variable  com5_y equal "c_COM5x[2]"
variable  com5_z equal "c_COM5x[3]"
variable  comall_x equal "c_COMall[1]"
variable  comall_y equal "c_COMall[2]"
variable  comall_z equal "c_COMall[3]"


fix          2 all print 100 "${com1_x}   ${com1_y}   ${com1_z}  ${com2_x}   ${com2_y}   ${com2_z} ${com3_x}   ${com3_y}   ${com3_z} ${com4_x}   ${com4_y}   ${com4_z} ${com5_x}   ${com5_y}   ${com5_z} ${comall_x}   ${comall_y}   ${comall_z}" file COM.data screen no
#-------------------------- Wave Propagation -------------------------
unfix        3temp
run          1000000
Memory usage per processor = 0.0664444 Mbytes
Step Lx Pxx Pyy Pzz Temp COM1x[1] COM1x[2] COM1x[3] COM2x[1] COM2x[2] COM2x[3] COM3x[1] COM3x[2] COM3x[3] COM4x[1] COM4x[2] COM4x[3] COM5x[1] COM5x[2] COM5x[3] COMall[1 COMall[2 COMall[3 
    5000    40.414702    10513.279    9313.3026    4940.4093    744.57865    2.0978441   -0.7101673   -18.336675   -18.000882  -0.80242576   -19.107795    2.3566759   -0.7521385   -9.4298105    -17.87894  -0.87610971   -9.6067282            0            0            0  -0.93426604  -0.79619441    -40.32771 
    5100    40.414702    9255.5285    8577.9203     4094.873    751.45575     2.171575  -0.64211735   -18.336702   -18.044478  -0.92540324   -19.067079    2.4579564  -0.70259213   -9.4453319   -17.936565   -1.0036637    -9.536026            0            0            0  -0.92366415   -0.7920682   -40.322246 
    5200    40.414702    7581.4878    8366.4915    2635.8625    745.32827    2.1067995   -0.5958872    -18.23593   -18.039358  -0.94368848   -19.022647    2.4725813  -0.56964538   -9.3261725   -17.892063  -0.93903803   -9.4467589            0            0            0  -0.91306226    -0.787942   -40.316782 
    5300    40.414702     6991.187    6979.3552    1271.8708    738.87986    2.1140923  -0.61809082   -18.115996   -17.962217  -0.91520143   -18.991381    2.4861222  -0.49788037   -9.1038187   -17.784191  -0.90238706   -9.3594143            0            0            0  -0.90246037   -0.7838158   -40.311318 
    5400    40.414702    7268.3839    6783.4202   0.52462911    712.14688    2.1553705  -0.63911679   -17.994546   -18.031417  -0.88052229   -18.861886    2.5088794  -0.45128239   -8.9181548   -17.802921  -0.84576613   -9.1636827            0            0            0  -0.89185848   -0.7796896   -40.305855 
    5500    40.414702    5384.3311    5236.8624    -1855.378    721.97987    2.1014287  -0.67920772      -17.919   -17.996227    -0.868291   -18.793442    2.4917384  -0.47186104   -8.8038186   -17.757654  -0.82026074   -9.1493841            0            0            0  -0.88125658  -0.77556339   -40.300391 
    5600    40.414702    4150.2584    4070.9619   -3235.7811      736.892    2.0790803  -0.62914786   -17.814704   -17.971949  -0.86847135   -18.731754    2.3994595   -0.5277078   -8.7834932   -17.742157   -0.8126705   -9.0577022            0            0            0  -0.87065469  -0.77143719   -40.294927 
    5700    40.414702    3685.9413    4046.4376   -4131.3825    717.49598    2.1218478  -0.62771775   -17.775911   -18.008348  -0.84320952   -18.643816    2.5230713  -0.60759891   -8.7059049   -17.770905  -0.71749118   -8.9933143            0            0            0   -0.8600528  -0.76731099   -40.289464 
    5800    40.414702    4140.2092    3800.3268   -4018.5711    717.31303    2.2488157  -0.59623381   -17.763856   -18.035807  -0.81175244   -18.616369    2.6926877   -0.5356164    -8.753977   -17.897931  -0.72037701   -8.8213169            0            0            0  -0.84945091  -0.76318478      -40.284 
    5900    40.414702    4170.5058    4678.3111   -2331.7502    707.80784     2.190335  -0.57243069   -17.781792    -17.94405  -0.78827199   -18.635699    2.5272262  -0.54051393   -8.7339608   -17.740942  -0.75541332   -8.8819924            0            0            0  -0.83884902  -0.75905858   -40.278536 
    6000    40.414702    4843.8992    5094.4666   -2087.3819    717.27815    2.1744799  -0.62044693    -17.83269   -17.962916  -0.74831449   -18.604728    2.4859998  -0.63404779   -8.8034352   -17.839083  -0.81407324   -8.9151198            0            0            0  -0.82824713  -0.75493238   -40.273072 
    6100    40.414702    5277.3928    5610.4552   -1284.8774    735.35762    2.2080588   -0.6312495   -17.924072   -17.950953  -0.70114531   -18.741672    2.4972441  -0.67169785   -8.9611189   -17.853438  -0.74928789   -9.0703436            0            0            0  -0.81764524  -0.75080618   -40.267609 
    6200    40.414702    6652.6938    6781.9286    117.24436    739.32707    2.1811263  -0.62377264    -18.03209   -17.932531  -0.77733861   -18.840258    2.4401194  -0.67925536   -9.0056861   -17.828918  -0.86081975   -9.2076315            0            0            0  -0.80704334  -0.74667997   -40.262145 
    6300    40.414702    7797.3015     7546.431    2043.4256    752.70371    2.1837661  -0.59343174   -18.042287   -17.894917  -0.84488476   -18.913818    2.4608544  -0.69476915   -9.1083303   -17.803233  -0.92206793   -9.2995974            0            0            0  -0.79644145  -0.74255377   -40.256681 
    6400    40.414702    8489.9941     8602.058    3073.3174    754.19305    2.1801953   -0.5583936   -18.077193   -17.910001  -0.88325915   -19.008413    2.4517085  -0.65430257    -9.145049   -17.779319  -0.93809269   -9.4920093            0            0            0  -0.78583956  -0.73842757   -40.251217 
    6500    40.414702    8542.5867    8383.8543    3646.8726     746.1567     2.145056  -0.57408384   -18.115576   -17.883926  -0.80737218   -19.082529    2.3958278  -0.59354791   -9.1961519   -17.753643  -0.83391393   -9.6239489            0            0            0  -0.77523767  -0.73430137   -40.245754 
    6600    40.414702    8796.7324    8083.8278    3289.8459    746.55188    2.2089931  -0.60680571   -18.069555   -17.914684  -0.79433094    -19.10992      2.53044  -0.53705298   -9.1235379    -17.76541  -0.82710182   -9.6647522            0            0            0  -0.76463578  -0.73017516    -40.24029 
    6700    40.414702    8311.2436    7820.0095    2994.9569    736.65922    2.2757322  -0.64434606   -18.099302   -17.932144  -0.80438265   -18.991159    2.5483597    -0.578383    -9.153026   -17.776343  -0.84182477   -9.5284993            0            0            0  -0.75403389  -0.72604896   -40.234826 
    6800    40.414702    7416.3515    7614.3538    2800.8432    742.87244    2.2270066  -0.64240897   -18.010678   -17.838111  -0.76984894   -18.937427    2.5360328   -0.5543434   -9.0367479    -17.64135  -0.77378442   -9.3842235            0            0            0    -0.743432  -0.72192276   -40.229363 
    6900    40.414702    7292.3317    7212.1132    1351.2936    731.48377    2.2176369  -0.58564691   -18.017535   -17.810388  -0.77117692   -18.772925    2.5914159  -0.50267059   -9.0025477   -17.614782   -0.6602135   -9.0963636            0            0            0   -0.7328301  -0.71779655   -40.223899 
    7000    40.414702    5121.7923    6077.4248    -893.7465    739.41444     2.361636  -0.55008274   -17.902948   -17.860005   -0.7766267   -18.659775    2.7188216  -0.54674894   -8.9165973   -17.676694  -0.68188921   -8.9858701            0            0            0  -0.72222821  -0.71367035   -40.218435 
    7100    40.414702    4742.5105    4881.8785   -2515.4321    741.12785    2.2797311  -0.53867261   -17.831924   -17.807729  -0.75591212    -18.61424    2.6275876   -0.5682818   -8.8093753   -17.645682  -0.71911004   -8.9338785            0            0            0  -0.71162632  -0.70954415   -40.212971 
    7200    40.414702    3854.9014    4023.4342   -3408.2939    727.84144    2.2930277  -0.50776055   -17.861325   -17.759587   -0.7608317   -18.527215    2.6252832  -0.42154753   -8.8600365   -17.580791  -0.76678604   -8.8072888            0            0            0  -0.70102443  -0.70541795   -40.207508 
    7300    40.414702    4400.7038    4408.9316   -3669.6719    706.92418    2.3807054  -0.59535872   -17.799195   -17.845595  -0.71262806   -18.433875    2.7241084  -0.50743938   -8.7566582   -17.685489  -0.79800471   -8.7408503            0            0            0  -0.69042254  -0.70129174   -40.202044 
    7400    40.414702     4629.466    4319.3471   -3984.8735     731.3975     2.361254  -0.56381288   -17.767557   -17.756534  -0.76585369   -18.547595    2.7815416  -0.52543171   -8.7347252   -17.620712  -0.84845238   -8.8739918            0            0            0  -0.67982065  -0.69716554    -40.19658 
    7500    40.414702    4606.5351    4645.6806   -3621.5691    739.56578    2.3175192  -0.56742434    -17.79627   -17.699107   -0.7886633   -18.591076    2.6823237  -0.52003729   -8.7035982   -17.532514  -0.79403111   -8.9976001            0            0            0  -0.66921876  -0.69303934   -40.191117 
    7600    40.414702    6187.8836    5752.2585   -1381.0371    733.71165    2.3651614  -0.51674594   -17.746609   -17.751534   -0.7503551   -18.620037    2.7092137  -0.56619293   -8.6593711   -17.528533  -0.67045191   -9.0033319            0            0            0  -0.65861686  -0.68891313   -40.185653 
    7700    40.414702    6371.2229    6330.2708   -315.96491    740.32724    2.3859965  -0.56360734   -17.748245   -17.787285  -0.67423298   -18.744789    2.6560966  -0.66371504   -8.7367132   -17.617735   -0.6203699   -9.1203133            0            0            0  -0.64801497  -0.68478693   -40.180189 
    7800    40.414702    7005.3269    6404.0928     586.0773    746.66211    2.3542477  -0.63543432    -17.86625   -17.743831  -0.74929228   -18.827969    2.6569705  -0.68264307   -8.8601122   -17.564189  -0.81044974   -9.2505491            0            0            0  -0.63741308  -0.68066073   -40.174725 
    7900    40.414702    8156.9523    8199.7159    2862.4842    743.53123    2.3748721  -0.58652651   -17.957775   -17.645809  -0.73087525   -18.943546    2.6519903  -0.57049687   -9.0167838   -17.497065  -0.81356854   -9.4304902            0            0            0  -0.62681119  -0.67653453   -40.169262 
    8000    40.414702    8560.1259    9333.8831    3362.9045    748.05663    2.4395173  -0.50889987   -18.069855   -17.714008  -0.69279493   -18.890952     2.713915  -0.52884579   -9.2033102   -17.620028  -0.80338049   -9.2860511            0            0            0   -0.6162093  -0.67240832   -40.163798 
    8100    40.414702    9377.6271    9517.1907    3792.6267    752.48775     2.425519  -0.49611891   -18.175955   -17.682829  -0.76830829   -18.836058    2.6749824  -0.54081143   -9.3595629   -17.599995  -0.86939602   -9.2729746            0            0            0  -0.60560741  -0.66828212   -40.158334 
    8200    40.414702    8952.8372    8476.6846    3669.6287    762.47334     2.427065  -0.53066292   -18.078582   -17.629016  -0.71252219   -18.787296     2.655369  -0.56340001   -9.2382547   -17.550814  -0.74674923    -9.196493            0            0            0  -0.59500552  -0.66415592   -40.152871 
    8300    40.414702    9256.5756    8939.2888    2652.9735    749.22207    2.4659398    -0.556482   -18.012571   -17.682896  -0.61803386   -18.781257    2.7032168  -0.66451657   -9.1124959   -17.588407  -0.68182469     -9.21545            0            0            0  -0.58440362  -0.66002972   -40.147407 
    8400    40.414702    6987.7913    7531.6459    1276.9597    754.45881    2.4009863   -0.5536985    -17.89937   -17.687436  -0.61797863   -18.792051    2.6710653  -0.55420064   -8.9181727   -17.619702  -0.58944472   -9.2388967            0            0            0  -0.57380173  -0.65590351   -40.141943 
    8500    40.414702    6393.6811    6266.1698    -254.3051    748.26847    2.4071741  -0.57863604   -17.759672   -17.657817  -0.65495881   -18.832276    2.7799492  -0.47327319   -8.7057048   -17.553072  -0.58682572   -9.3581103            0            0            0  -0.56319984  -0.65177731   -40.136479 
    8600    40.414702    5885.2952    5821.4847   -1383.2645    756.07055    2.4181094  -0.46200143   -17.677769   -17.712318  -0.72534796   -18.704764    2.7634403  -0.33631498   -8.5984159   -17.486258  -0.68310338   -9.1305682            0            0            0  -0.55259795  -0.64765111   -40.131016 
    8700    40.414702    5343.2409    4355.6652   -2570.9444    747.11652    2.4170357  -0.47654579   -17.554994   -17.733351  -0.73126849   -18.630159    2.8414437  -0.33495196   -8.5685163   -17.477599  -0.66364079   -9.0061647            0            0            0  -0.54199606   -0.6435249   -40.125552 
    8800    40.414702     5194.425    4823.7346   -3174.5683    727.04893     2.453045  -0.48247924     -17.5522   -17.711253  -0.76765195   -18.610876    2.8402567  -0.36686936   -8.5397894   -17.469332  -0.66467964   -9.0114585            0            0            0  -0.53139417   -0.6393987   -40.120088 
    8900    40.414702    4957.6335    4808.6491   -3116.6685    721.20899    2.3956574  -0.47152078   -17.643129     -17.7389  -0.67264852   -18.485521    2.7477823  -0.40302728   -8.6276502   -17.487519  -0.55577346    -8.809191            0            0            0  -0.52079228   -0.6352725   -40.114625 
    9000    40.414702    4448.6748    4712.7265   -3470.1754     741.8537    2.4388552  -0.52927449   -17.710183   -17.682526  -0.65054756   -18.454707    2.7880706   -0.4810134   -8.6959342   -17.493276  -0.59649519    -8.696343            0            0            0  -0.51019038   -0.6311463   -40.109161 
    9100    40.414702    5395.0711    4993.4456   -2587.6871    744.78416    2.4287627  -0.56212349   -17.731728   -17.656771  -0.59738175   -18.485054    2.7718711  -0.53667204   -8.7424707   -17.541736  -0.59791333   -8.8666151            0            0            0  -0.49958849  -0.62702009   -40.103697 
    9200    40.414702    5989.5444    6052.8936   -1131.3253    748.37026    2.3994512  -0.50449686   -17.779633   -17.628983  -0.63216845   -18.567468    2.6850989  -0.47141033   -8.7710671   -17.513461   -0.6721424   -8.9610467            0            0            0   -0.4889866  -0.62289389   -40.098233 
    9300    40.414702    7440.0364    7197.1747    703.88886    739.96771    2.4543757  -0.42150581   -17.843827    -17.64192  -0.61166553   -18.689092    2.7235641  -0.43675914   -8.8848578   -17.557568  -0.65466998   -9.1602917            0            0            0  -0.47838471  -0.61876769    -40.09277 
    9400    40.414702    8059.6583       7718.1    1553.2377    737.55804    2.4735735  -0.41709046   -17.871486   -17.673338   -0.6412029   -18.761684    2.6601826  -0.47317332   -8.9012322   -17.621633   -0.7328552    -9.311045            0            0            0  -0.46778282  -0.61464148   -40.087306 
    9500    40.414702    8726.3979    8612.9234    1994.0458    754.22027    2.4736873  -0.47518462   -17.947162   -17.629826  -0.62792696   -18.834693    2.6857864  -0.58528373   -9.0570867    -17.54237  -0.67035185   -9.2863841            0            0            0  -0.45718093  -0.61051528   -40.081842 
    9600    40.414702    9344.2851    8559.8941    4221.4333     760.9535    2.5111163  -0.40651229   -17.909565   -17.657212  -0.67015444   -18.868954    2.7089754  -0.42832159   -9.0322272   -17.656556     -0.70972    -9.299191            0            0            0  -0.44657904  -0.60638908   -40.076379 
    9700    40.414702    8878.5395    9023.1896    3760.5623    771.21271      2.49971  -0.44656169   -18.013594   -17.661646  -0.59143112   -18.810988    2.7717169  -0.45068455   -9.1201716   -17.627244    -0.643546   -9.2478567            0            0            0  -0.43597714  -0.60226288   -40.070915 
    9800    40.414702     9406.345    8537.2826    2573.6514    766.16804    2.4754556  -0.49137422   -17.960487    -17.55882  -0.61302076   -18.794939    2.7539238  -0.50985829    -9.082983   -17.445173  -0.63459636   -9.2996611            0            0            0  -0.42537525  -0.59813667   -40.065451 
    9900    40.414702    7801.2114    8289.4579    1647.9658    754.19132    2.4893039  -0.54414032    -17.95683   -17.536721  -0.65715704   -18.729445    2.7361394  -0.49059868   -9.0417719   -17.431797  -0.58576199   -9.1878034            0            0            0  -0.41477336  -0.59401047   -40.059987 
   10000    40.414702    7138.8858    7329.9606    400.03462    748.65399    2.5483167  -0.45534704   -17.893094    -17.53201  -0.63725759   -18.622046    2.7801833  -0.38143565   -8.9210041   -17.376609  -0.56472536    -9.054937            0            0            0  -0.40417147  -0.58988427   -40.054524 
   10100    40.414702    6750.2822    7126.9365   -661.44971     748.0888    2.5253268  -0.44068518   -17.717598   -17.508753  -0.65874881   -18.573947    2.8021648  -0.38452091    -8.781953   -17.376978  -0.55009595   -8.9561626            0            0            0  -0.39356958  -0.58575807    -40.04906 
   10200    40.414702    6169.2915    5862.2984   -1665.5787    734.81242    2.5975092  -0.42994165   -17.577766   -17.505392  -0.69909717   -18.485617    2.9223881  -0.30866338   -8.6416702     -17.3778  -0.58139182   -8.9137804            0            0            0  -0.38296769  -0.58163186   -40.043596 
   10300    40.414702    5390.2893    5028.2248   -2982.0225    718.77153    2.6697402  -0.42099054   -17.534164   -17.510855  -0.67283595   -18.485995    3.0481945  -0.29599875   -8.4953954   -17.365315  -0.56971955   -8.9268511            0            0            0   -0.3723658  -0.57750566   -40.038133 
   10400    40.414702    5577.1216    4947.3511   -2873.6514    728.49299    2.6577153   -0.5067631   -17.459827   -17.465873   -0.6433956   -18.520576    3.0355814  -0.39474057   -8.3759759   -17.223338  -0.58750749    -8.952839            0            0            0   -0.3617639  -0.57337946   -40.032669 
   10500    40.414702    4760.9305    4856.6514   -3431.6374    720.53303    2.6418015  -0.44897354   -17.435691   -17.361495  -0.63065061   -18.472889    2.9808834  -0.37153326   -8.3031344   -17.109039  -0.59186419   -8.8559663            0            0            0  -0.35116201  -0.56925325   -40.027205 
   10600    40.414702    4367.6321    4549.9454   -3901.0966    743.20874    2.7140594   -0.4796241   -17.472702   -17.394273  -0.61734372       -18.44    3.0791745  -0.41458005    -8.438498   -17.168904  -0.55197163   -8.7902931            0            0            0  -0.34056012  -0.56512705   -40.021741 
   10700    40.414702    5648.5673     5755.718   -1747.8646    745.49446    2.7274306  -0.45045563   -17.563919   -17.393693  -0.65376482   -18.486108     3.121916  -0.42043303   -8.5814605   -17.149949  -0.61390283   -8.8520923            0            0            0  -0.32995823  -0.56100085   -40.016278 
   10800    40.414702    6556.2733    6538.2791   -1033.8221    747.63547    2.7499395  -0.46793421    -17.75101   -17.333004  -0.64470169    -18.52431    3.1114018  -0.49691423   -8.8467929   -17.149084  -0.62386037   -8.8745806            0            0            0  -0.31935634  -0.55687465   -40.010814 
   10900    40.414702    7340.8118    7147.0431   -73.727195    745.38746    2.7970743   -0.4342227   -17.755457   -17.363419  -0.66627029   -18.549583    3.1619815  -0.45186585   -8.7948085   -17.179543  -0.69295408   -9.0175476            0            0            0  -0.30875445  -0.55274844    -40.00535 
   11000    40.414702    8109.6942    7507.5941     1377.934    750.08256    2.8047363  -0.43331721   -17.873052   -17.309267  -0.64624906   -18.562483    3.1343253  -0.43353156    -9.007461   -17.149463  -0.71674327   -9.0537533            0            0            0  -0.29815256  -0.54862224   -39.999887 
   11100    40.414702    8879.6603    8538.1875    2985.9651    744.48271    2.7848109   -0.4369975   -17.975416    -17.29047  -0.58456046   -18.680918    3.0286082   -0.4531107   -9.1020608   -17.109685  -0.64522489     -9.19632            0            0            0  -0.28755066  -0.54449604   -39.994423 
   11200    40.414702     9171.667    8747.9055    3127.5469    768.32658    2.8029381  -0.44522027   -17.893706   -17.278967  -0.59090649   -18.751068    3.0906126  -0.49573705   -9.0008873   -17.097312  -0.68323816   -9.2963043            0            0            0  -0.27694877  -0.54036983   -39.988959 
   11300    40.414702    9140.8009    9395.1466    3430.2674    768.73254    2.8441656  -0.47875001   -17.847217   -17.296788  -0.57606497   -18.809412    3.1519116  -0.55255621   -8.9800991   -17.176254  -0.58228598   -9.3381515            0            0            0  -0.26634688  -0.53624363   -39.983495 
   11400    40.414702     9331.572    9270.6139     3470.518    747.62024     2.904709  -0.44094311   -17.801942   -17.262522  -0.51797657   -18.736364    3.2721861  -0.47725143   -8.9102206   -17.180435  -0.57813166   -9.2525333            0            0            0  -0.25574499  -0.53211743   -39.978032 
   11500    40.414702    8444.6953      8288.32    1176.3732    750.64834    2.8571779  -0.42592185   -17.711215   -17.256946  -0.52251656   -18.717286    3.2020287  -0.50520251   -8.7739159   -17.118743  -0.53670205   -9.1942087            0            0            0   -0.2451431  -0.52799123   -39.972568 
   11600    40.414702    7831.7512    7186.4733    1277.2907    749.21523    2.8968764  -0.38405771   -17.737418   -17.269836  -0.57036715   -18.597406    3.1553079  -0.36409421   -8.7766574   -17.061536  -0.60436006      -9.0391            0            0            0  -0.23454121  -0.52386502   -39.967104 
   11700    40.414702    6006.8497    7168.2262   -136.95494    736.86553    2.8346299  -0.32319962   -17.643806    -17.26119  -0.55617805    -18.48905    3.0847031  -0.29772711   -8.6969404   -17.077314  -0.51586065   -8.9034552            0            0            0  -0.22393932  -0.51973882   -39.961641 
   11800    40.414702    5656.1242    5934.0493   -2365.6783    736.33323    2.8019542  -0.35103381   -17.569876   -17.251607  -0.58643172   -18.424225    3.1180569  -0.23027546   -8.6037276   -17.055609  -0.53803308   -8.8869748            0            0            0  -0.21333742  -0.51561262   -39.956177 
   11900    40.414702      5909.43     5573.069   -2551.0875     741.2741    2.8343695   -0.3837034   -17.519283   -17.305115  -0.57384813   -18.345666     3.189519  -0.29836425   -8.5035609   -17.072471  -0.47333682   -8.6820683            0            0            0  -0.20273553  -0.51148642   -39.950713 
   12000    40.414702    5064.1435     5080.791   -3428.8737    738.99951    2.7719527  -0.36503009   -17.523648   -17.251051  -0.53072341   -18.271586    3.1511627  -0.23900858   -8.4914614   -17.065016  -0.35702721   -8.6127053            0            0            0  -0.19213364  -0.50736021   -39.945249 
   12100    40.414702    4279.7115    4735.0694   -3381.4958     742.9289    2.7559033  -0.40006954   -17.466743   -17.278379  -0.54137957   -18.352541     3.125764   -0.2844953   -8.4897209   -17.127901  -0.36081973   -8.7253075            0            0            0  -0.18153175  -0.50323401   -39.939786 
   12200    40.414702    5415.9819    5134.3566   -2193.6799    737.39439    2.8026255  -0.38071948   -17.521296    -17.31013  -0.53551336   -18.313941    3.1388901  -0.28629555   -8.4741673   -17.086098  -0.42743321     -8.66663            0            0            0  -0.17092986  -0.49910781   -39.934322 
   12300    40.414702    6479.1408    6500.8547    37.599857    728.41088    2.8042778  -0.31199228   -17.602723   -17.327445  -0.48926733   -18.343197    3.0738792  -0.19143377   -8.5933655   -17.153142   -0.4331457   -8.6902246            0            0            0  -0.16032797   -0.4949816   -39.928858 
   12400    40.414702     6381.926    6613.4995   -519.45795    742.32601    2.7988293  -0.31475955   -17.611586   -17.325282  -0.50678227   -18.437871    3.0909697  -0.27939766   -8.7235893   -17.177044  -0.46645542   -8.8398758            0            0            0  -0.14972608   -0.4908554   -39.923395 
   12500    40.414702    7739.0884    7422.7885    861.70228    749.01802     2.812642   -0.2772544   -17.707108   -17.314319  -0.51149308     -18.5045     3.125945  -0.26322829   -8.7555823   -17.201398  -0.52001622   -8.9786322            0            0            0  -0.13912418   -0.4867292   -39.917931 
   12600    40.414702    8044.2876    8465.6536    2415.7625    743.81589    2.8185135  -0.24627064   -17.728292   -17.330034  -0.43354295   -18.577498    3.0933185  -0.29220888   -8.8527263   -17.227406  -0.47522938   -9.0599797            0            0            0  -0.12852229    -0.482603   -39.912467 
   12700    40.414702    8376.3593    8245.3502    1879.3903    761.47297     2.827552  -0.30812544   -17.713946   -17.319716  -0.41684636   -18.646118    3.0429495  -0.33417992   -8.8072649   -17.235881  -0.45639502   -9.1335042            0            0            0   -0.1179204  -0.47847679   -39.907003 
   12800    40.414702    9143.6085    8521.2506    3379.5698     748.8063    2.7640289  -0.30634508   -17.795509   -17.272665  -0.44470821   -18.585949    2.9488208  -0.34212824   -8.9122223   -17.247266  -0.50251515   -9.1801367            0            0            0  -0.10731851  -0.47435059    -39.90154 
   12900    40.414702    9120.6985    9250.6494    2800.8686    745.62861    2.7751597  -0.22715416    -17.82648   -17.289778   -0.4035065    -18.64625    2.9482616  -0.26252006   -8.9355543   -17.256021  -0.43132935   -9.1645354            0            0            0 -0.096716618  -0.47022439   -39.896076 
   13000    40.414702    8468.7921    8120.8395    1782.1325    753.89342    2.8302069  -0.23862385   -17.721374    -17.31499  -0.48669074   -18.574132    3.0499191  -0.28480004   -8.7709944   -17.305752  -0.53013757   -9.0658835            0            0            0 -0.086114726  -0.46609818   -39.890612 
   13100    40.414702    7816.3902     8254.831    935.19317    747.48693    2.8423751  -0.25638115   -17.621811   -17.274017  -0.49053271   -18.507682    3.0778153  -0.25762136   -8.6723892   -17.249548  -0.52636516   -8.9615276            0            0            0 -0.075512835  -0.46197198   -39.885148 
   13200    40.414702    6986.4754    7431.4625     24.06477    745.89769    2.8347036   -0.2090113    -17.57664   -17.295231  -0.42354072   -18.519112    3.0721761  -0.18367503   -8.6601565   -17.210579  -0.41106731   -8.9206115            0            0            0 -0.064910944  -0.45784578   -39.879685 
   13300    40.414702     6787.436    6593.7245   -897.72894     745.7142    2.8710528  -0.31172627   -17.502079   -17.249174  -0.44203848   -18.427703    3.1197508  -0.29237741   -8.5885281     -17.0997  -0.40379957   -8.8748359            0            0            0 -0.054309052  -0.45371958   -39.874221 
   13400    40.414702    6602.0336    6293.6399   -1731.6468    739.98878    2.9268257  -0.40193253   -17.454609   -17.183424  -0.46364661   -18.395737    3.2004968    -0.357336    -8.485617   -17.056061  -0.44575347   -8.8176457            0            0            0 -0.043707161  -0.44959337   -39.868757 
   13500    40.414702    5608.5189      5684.93   -2296.3539    748.61139      2.92034  -0.36478829    -17.42141   -17.169708  -0.40130725   -18.282622    3.2003496  -0.31821666   -8.4603347    -17.08142  -0.33472883   -8.7237888            0            0            0 -0.033105269  -0.44546717   -39.863294 
   13600    40.414702    4975.0507     4907.532   -3052.5421    736.47687    2.9526575  -0.30377137   -17.458984    -17.12412  -0.43619425   -18.213945    3.2619542  -0.24546996   -8.4633937   -17.000145  -0.40039676   -8.6675605            0            0            0 -0.022503378  -0.44134097    -39.85783 
   13700    40.414702    5290.9754    6017.1975   -2010.2953    745.09118    2.9681652  -0.33913187   -17.517807   -17.097798  -0.54761446   -18.249203    3.2781315  -0.28606721   -8.4856405   -16.939065   -0.5532798    -8.634931            0            0            0 -0.011901486  -0.43721476   -39.852366 
   13800    40.414702    6181.5966    5268.4264   -1315.0668    746.23954    3.0034036  -0.31473783   -17.478484   -17.058843  -0.57853954   -18.312631    3.3326889  -0.28376794   -8.4687713   -16.831542  -0.54900767   -8.6625968            0            0            0 -0.001299595  -0.43308856   -39.846902 
   13900    40.414702    5438.1016     5105.277   -1686.1948    758.03156    3.0598996  -0.32523087   -17.453139   -17.078402  -0.58452537   -18.286871    3.4828495  -0.28872414   -8.4987367   -16.813759  -0.52839389   -8.6038134            0            0            0 0.0093022964  -0.42896236   -39.841439 
   14000    40.414702    6483.5364    7412.2754   -393.76096     745.1041    3.0805095  -0.41553968   -17.512406   -17.060792  -0.54309483   -18.387876       3.5198  -0.39949801   -8.5639916   -16.842495  -0.58917071   -8.8093805            0            0            0  0.019904188  -0.42483616   -39.835975 
   14100    40.414702    7462.6274    8120.4296    782.83694    749.61073    3.1138365  -0.44025743   -17.555612   -17.014696  -0.52481872   -18.525488    3.5527037  -0.38087004   -8.6353479   -16.741842  -0.52140312   -9.0152415            0            0            0  0.030506079  -0.42070995   -39.830511 
   14200    40.414702    8189.6307    8127.4998    1738.5595     748.4191    3.1555843  -0.40614646   -17.670054   -17.015552  -0.53778278   -18.477061    3.5502436  -0.43544951   -8.7894235   -16.752517  -0.48644654   -9.0358754            0            0            0  0.041107971  -0.41658375   -39.825048 
   14300    40.414702    8331.5654     8487.569    2373.0247    762.96293    3.1952078   -0.3884777   -17.627817   -16.962365  -0.54369598   -18.443789    3.5188392   -0.5013837   -8.7046816   -16.729728   -0.5806174   -8.9782544            0            0            0  0.051709862  -0.41245755   -39.819584 
   14400    40.414702    8914.4804    8728.4751    3036.1122    756.26495    3.1885111  -0.34643149   -17.675775   -16.932273  -0.63666811   -18.507915    3.4781082  -0.39670912   -8.7424666   -16.728056  -0.68291519   -9.0273693            0            0            0  0.062311754  -0.40833135    -39.81412 
   14500    40.414702    8670.7251    8277.5838     2177.417    757.59268    3.2158865  -0.32434159   -17.671825   -16.893983  -0.63249626   -18.505211     3.515996  -0.32962596   -8.7857833   -16.773956  -0.73273885   -8.9852041            0            0            0  0.072913645  -0.40420514   -39.808656 
   14600    40.414702    8307.2594    8659.0798    2000.0122    746.18999    3.2566653  -0.33681741    -17.61083   -16.899901  -0.58561455   -18.456336    3.5281935  -0.40713314   -8.7438039   -16.796849  -0.69478556   -8.9203852            0            0            0  0.083515536  -0.40007894   -39.803193 
   14700    40.414702     7694.734    6923.1565    593.24832    762.29297    3.2288061  -0.43356601   -17.494168   -16.882484  -0.53563487   -18.336422    3.4885943  -0.43458132   -8.5896384   -16.785751  -0.58916884   -8.8025566            0            0            0  0.094117428  -0.39595274   -39.797729 
   14800    40.414702    6498.9955    6028.6334   -382.49699    755.79457    3.2148115  -0.43433509   -17.469692   -16.861894  -0.48279021   -18.316213    3.4475618  -0.45398034   -8.5449426    -16.73923  -0.42673042   -8.7886384            0            0            0   0.10471932  -0.39182653   -39.792265 
   14900    40.414702    5726.3956    6344.5521   -993.26904    754.50202    3.2284655  -0.35642119   -17.419819   -16.883835  -0.45429051   -18.330792    3.4702549  -0.40482537   -8.4396909   -16.725116  -0.43494234   -8.8094778            0            0            0   0.11532121  -0.38770033   -39.786802 
   15000    40.414702    5346.4775    5687.1434   -2076.0698    746.48836    3.1917985  -0.31885135   -17.305454   -16.907208  -0.50652306   -18.230996    3.5138762  -0.36345216   -8.3383491   -16.755743  -0.50671713   -8.6593782            0            0            0    0.1259231  -0.38357413   -39.781338 
   15100    40.414702    5294.9137    5412.3992   -2651.4669    739.54764    3.1794047   -0.3195928     -17.2376   -16.914904   -0.5717414   -18.190581    3.5572189  -0.27028306    -8.255229   -16.693836  -0.60802209   -8.6240569            0            0            0   0.13652499  -0.37944793   -39.775874 
   15200    40.414702    4914.5862    5095.8659   -2543.7039    735.20687    3.1852913  -0.24008791   -17.276822   -16.960733  -0.44506385   -18.211179    3.6068177  -0.21096943   -8.2834916   -16.719326  -0.53203035   -8.6042805            0            0            0   0.14712689  -0.37532172    -39.77041 
   15300    40.414702    6336.1736     6052.012   -1176.4611    730.65125    3.1604825  -0.26483886   -17.407035    -16.94818  -0.42211954   -18.193514    3.5722382  -0.21343557   -8.4614637    -16.72372  -0.37089082   -8.5317865            0            0            0   0.15772878  -0.37119552   -39.764947 
   15400    40.414702    6200.7509    6016.6183   -883.49826    737.04627    3.1678781  -0.32069351   -17.396021   -16.973937  -0.39806454   -18.174966     3.552554  -0.34423834   -8.4132178    -16.71773  -0.30458029   -8.5880283            0            0            0   0.16833067  -0.36706932   -39.759483 
   15500    40.414702    6259.0011     6623.247   -526.46057    738.89713    3.1567876  -0.27870557   -17.466882    -16.99227   -0.3729802   -18.162431    3.5129083  -0.30554675   -8.4769329   -16.768683  -0.32233361   -8.5615754            0            0            0   0.17893256  -0.36294311   -39.754019 
   15600    40.414702    6860.1752    6627.7269   -340.42886    754.37691     3.107035  -0.19002623   -17.536979   -16.981813  -0.35880513   -18.273106    3.4352516  -0.10397042    -8.573249   -16.817656  -0.29995933   -8.7536978            0            0            0   0.18953445  -0.35881691   -39.748556 
   15700    40.414702    7550.7203    7836.2376    398.90682    751.51143    3.0972194  -0.18004493   -17.558421   -16.932525  -0.39679246   -18.387027    3.4162888 -0.097984321   -8.6671435   -16.824948  -0.40847671   -8.9115356            0            0            0   0.20013634  -0.35469071   -39.743092 
   15800    40.414702    8775.3502    8703.3477    2061.8809    757.47869    3.0939947  -0.22241372   -17.511442   -16.952061  -0.39471075   -18.470867    3.3342546  -0.19727242   -8.6864358   -16.862022    -0.428965   -8.9856312            0            0            0   0.21073823  -0.35056451   -39.737628 
   15900    40.414702    8517.1485    8460.9695    3436.9645    768.00218    3.1337788  -0.10297827   -17.481366   -16.990425  -0.33295465   -18.451141     3.366808  -0.12445559   -8.6420313   -16.904851  -0.26076198   -8.9322158            0            0            0   0.22134013   -0.3464383   -39.732164 
   16000    40.414702    7979.1374    8782.4184    2367.9736    760.75143    3.1573305  -0.14059774   -17.536785   -16.999853  -0.29799787   -18.457235    3.3732923  -0.18178827   -8.5800297   -16.962899  -0.20305839    -8.927627            0            0            0   0.23194202   -0.3423121   -39.726701 
   16100    40.414702    8119.3382    8722.1442    1916.0785     751.5219    3.1234652  -0.16894727   -17.633816   -16.986598  -0.32116023   -18.387002     3.323801  -0.19777568   -8.7152377   -16.927792  -0.35166071   -8.9216957            0            0            0   0.24254391   -0.3381859   -39.721237 
   16200    40.414702    7841.6754    7291.5598    1181.1283     758.3914    3.1283807  -0.11146805   -17.554065   -16.977223   -0.2273807   -18.307384    3.3527435 -0.077215949   -8.5768787   -16.893546  -0.29457054   -8.8454813            0            0            0    0.2531458   -0.3340597   -39.715773 
   16300    40.414702    7312.5938    7523.6352    1142.2693    735.52181     3.169805  -0.10636172   -17.417835   -16.998769  -0.27335691   -18.235619    3.4055323 -0.087591435   -8.4050277   -16.943909    -0.393124    -8.723977            0            0            0   0.26374769  -0.32993349    -39.71031 
   16400    40.414702    6630.8598     6459.444   -1445.7136    752.07401    3.1590868  -0.14400799   -17.375575   -16.952158  -0.34462448   -18.191312    3.4343841  -0.19308493   -8.3991977   -16.869373  -0.35075571   -8.6316854            0            0            0   0.27434958  -0.32580729   -39.704846 
   16500    40.414702    6077.1595    6476.8512   -1322.5502    747.10955    3.1670543 -0.066570458   -17.268172   -16.872863  -0.28920895   -18.244469    3.4570243  -0.07363517   -8.4120042   -16.807682  -0.26096385   -8.6869738            0            0            0   0.28495147  -0.32168109   -39.699382 
   16600    40.414702    5715.0823    5789.5614   -1889.2154    729.40203    3.2723991 -0.097872595   -17.250489   -16.874112  -0.27779532   -18.231864    3.5241805 -0.085238189   -8.3798328    -16.73565  -0.24084292   -8.6100362            0            0            0   0.29555337  -0.31755488   -39.693918 
   16700    40.414702    5603.0988    5744.9562   -1975.6751    743.56447    3.3048198  -0.14227663   -17.145502   -16.861481   -0.2998595   -18.169727    3.5946757  -0.13026378   -8.1889879    -16.73249  -0.28208664   -8.5667368            0            0            0   0.30615526  -0.31342868   -39.688455 
   16800    40.414702    5575.2443    5650.3587   -2630.6478    732.50545     3.287844  -0.17896617   -17.142625   -16.801707  -0.25386584   -18.052416    3.5879916  -0.10717635   -8.1121735   -16.689792   -0.2238245   -8.4386003            0            0            0   0.31675715  -0.30930248   -39.682991 
   16900    40.414702    5580.5493    6024.0515   -2180.9928    739.49731    3.3814673 -0.082689118   -17.240921   -16.756838  -0.26030825   -18.080612    3.6233623 -0.032590669    -8.165514   -16.581098  -0.17773928   -8.5871051            0            0            0   0.32735904  -0.30517628   -39.677527 
   17000    40.414702    6006.2785    6034.2719    -1562.236    742.55094    3.4232752  -0.13679017   -17.338705   -16.783766  -0.22755559   -18.141293    3.7823465 -0.074228655   -8.3011322   -16.627569  -0.19793999   -8.6238718            0            0            0   0.33796093  -0.30105007   -39.672064 
   17100    40.414702    6454.5357    6660.3825     104.9978    747.68468    3.3714675  -0.10449931   -17.386979   -16.691116  -0.33640882    -18.19778    3.7466482 -0.058487184   -8.4089183    -16.52685  -0.25871343   -8.6817963            0            0            0   0.34856282  -0.29692387     -39.6666 
   17200    40.414702    7314.6375    6641.0804    469.38058     743.0255    3.3743949 -0.086953358   -17.364426   -16.709265  -0.28410508   -18.196302    3.7232526 -0.032314627   -8.4571443   -16.468148  -0.19888773   -8.6145546            0            0            0   0.35916471  -0.29279767   -39.661136 
   17300    40.414702    7720.8787    7705.8668    1377.4347    756.77603    3.4147134  -0.08635305   -17.416751   -16.753593  -0.34585321    -18.30761    3.7815443 -0.057258181   -8.5319132    -16.48438  -0.22778138   -8.7592544            0            0            0   0.36976661  -0.28867146   -39.655672 
   17400    40.414702    8220.3767    8514.8325    2059.3886    761.51481    3.4331854  -0.15165168   -17.444538   -16.653223  -0.35408927   -18.408185    3.8181524  -0.11849091   -8.6403868   -16.399726  -0.34049524   -8.9113062            0            0            0    0.3803685  -0.28454526   -39.650209 
   17500    40.414702    8884.5445    8442.1315    2348.8076     751.8879     3.457235  -0.12821825   -17.458839   -16.706458  -0.30051265   -18.420751    3.8247095 -0.080051573     -8.63524   -16.427438  -0.34727299   -8.9500282            0            0            0   0.39097039  -0.28041906   -39.644745 
   17600    40.414702    8497.4288    8903.2424    2560.5059     753.6338    3.4821837  -0.20094315   -17.415675   -16.718254  -0.29587764   -18.314558    3.8957795  -0.19820361   -8.4601508   -16.497731  -0.27774428   -8.8254585            0            0            0   0.40157228  -0.27629286   -39.639281 
   17700    40.414702    7865.2039    7922.4383     1512.621    761.14917    3.4928877    -0.224094   -17.458908   -16.609785  -0.32259083   -18.311397     3.868575  -0.31333289   -8.5006214    -16.43471  -0.34694076   -8.8514162            0            0            0   0.41217417  -0.27216665   -39.633818 
   17800    40.414702    7197.0789    7605.6257    741.06697    767.38924    3.4671592  -0.15758226   -17.415273   -16.579617  -0.29044352   -18.222842    3.7801747  -0.22114215   -8.4747145   -16.454745  -0.26370178   -8.7856067            0            0            0   0.42277606  -0.26804045   -39.628354 
   17900    40.414702    6565.7875    7172.4199    70.130535    761.33092    3.5308992  -0.10421032   -17.371699   -16.524169  -0.30923738   -18.218158    3.7969133  -0.17559983   -8.4670554   -16.385343  -0.36669616   -8.7197778            0            0            0   0.43337795  -0.26391425    -39.62289 
   18000    40.414702    6725.9259    6540.9582   -401.18316    748.29304    3.4982826   -0.1334742   -17.292721    -16.54068  -0.34208657   -18.091512    3.7398047  -0.18995905    -8.371937   -16.405724   -0.4469575   -8.5262799            0            0            0   0.44397985  -0.25978805   -39.617426 
   18100    40.414702    5507.2058    5477.9963   -2246.1677    746.91495    3.5246104  -0.17223982   -17.235463   -16.518938   -0.2847418   -18.062278    3.7869484   -0.1817342     -8.31595    -16.42637  -0.41248625   -8.4694614            0            0            0   0.45458174  -0.25566184   -39.611963 
   18200    40.414702    5089.6336     4813.576   -2470.6836    746.05835    3.5923261  -0.17894574   -17.141569   -16.555185  -0.35913777   -18.066178    3.8519556  -0.17227111    -8.170753   -16.466386  -0.45382851    -8.469414            0            0            0   0.46518363  -0.25153564   -39.606499 
   18300    40.414702    5956.7203      5212.06   -2429.0045     744.8999    3.5202138  -0.16925866    -17.14232    -16.60607  -0.32575349   -18.036804    3.8021792  -0.21744782   -8.1054452    -16.53557  -0.29018879   -8.4772465            0            0            0   0.47578552  -0.24740944   -39.601035 
   18400    40.414702    5819.9778    6097.6777    -1779.767    726.74805     3.564863  -0.13532514    -17.09691   -16.588014  -0.34241829   -18.099274    3.8826073  -0.13481264   -8.0541752   -16.448114  -0.33599303   -8.5364638            0            0            0   0.48638741  -0.24328323   -39.595572 
   18500    40.414702    5667.0402    6071.2644   -1125.0411    739.75021     3.511332  -0.17405694   -17.201716   -16.613693  -0.38607027   -18.114649    3.8488755  -0.17562075   -8.1822277    -16.39359  -0.28158564   -8.5665404            0            0            0    0.4969893  -0.23915703   -39.590108 
   18600    40.414702    6927.1698    7287.6289    127.76204     727.2802    3.4745866   -0.1786806   -17.181824   -16.641133  -0.33485008   -18.112608    3.8019542  -0.13547153   -8.2294379   -16.390652  -0.27719474   -8.5789793            0            0            0   0.50759119  -0.23503083   -39.584644 
   18700    40.414702    6968.9256    7146.9812    289.59593    748.56359    3.4525769 -0.072993425   -17.218472   -16.636925  -0.30459867   -18.117084    3.8341853 -0.022343239   -8.3275183   -16.370922  -0.30169917   -8.5831273            0            0            0   0.51819309  -0.23090463    -39.57918 
   18800    40.414702    7212.5343    7962.1257    606.85123     753.6924    3.4177505  -0.15357579    -17.32626   -16.565873   -0.3329405   -18.216271    3.7640528 -0.065207848   -8.4693809   -16.352337  -0.32377868   -8.7036382            0            0            0   0.52879498  -0.22677842   -39.573717 
   18900    40.414702    8555.5936    8273.3294    2649.8141    752.95477    3.5221309  -0.12071659   -17.396092   -16.580073  -0.32195122   -18.233862    3.8457172 -0.090134339   -8.5101483   -16.469937  -0.26627741   -8.7267944            0            0            0   0.53939687  -0.22265222   -39.568253 
   19000    40.414702      8351.22    8532.0158    2113.3519    757.92689    3.5268544 -0.093868122   -17.371442   -16.586613  -0.24693748    -18.22222    3.7980445 -0.054800484   -8.5096782   -16.490801  -0.18124467   -8.7490305            0            0            0   0.54999876  -0.21852602   -39.562789 
   19100    40.414702    7705.1386     8131.972    1881.6422    759.41422    3.5402989  -0.09615454   -17.334671   -16.583138  -0.27126175   -18.207357    3.8583634 -0.098957591   -8.4287901   -16.465762  -0.19226903   -8.7393742            0            0            0   0.56060065  -0.21439981   -39.557325 
   19200    40.414702    8434.1472     8786.804    2247.1928    753.36847    3.5414395 -0.088401781   -17.305047   -16.568295  -0.25200415   -18.188865     3.813274  -0.05286973    -8.318759   -16.434436  -0.25444093   -8.6403082            0            0            0   0.57120254  -0.21027361   -39.551862 
   19300    40.414702    7995.8954    7540.0732    1395.9167    747.16712    3.5163318 -0.087106074   -17.259891   -16.567037  -0.20396364   -18.237008    3.7666221 -0.064160814   -8.2770257   -16.447737  -0.20303256   -8.7571617            0            0            0   0.58180443  -0.20614741   -39.546398 
   19400    40.414702    7286.4623    7020.5768    1104.2452    756.09066    3.5223124 -0.073011596   -17.145372   -16.478403  -0.20426332   -18.172094     3.764252  -0.11285731   -8.1780697   -16.400394  -0.25835323   -8.6972485            0            0            0   0.59240633  -0.20202121   -39.540934 
   19500    40.414702    7056.5751    6544.5544   -288.61006    750.84069    3.5252144 -0.022440506   -17.142258   -16.542579  -0.23597715   -18.131516     3.771625 -0.076776398   -8.2281607   -16.466953  -0.20722892   -8.6637808            0            0            0   0.60300822    -0.197895   -39.535471 
   19600    40.414702    6097.4903    6018.0049   -1155.2495    752.66804    3.6216158 -0.037986287   -17.116717   -16.533943  -0.23964595   -18.074586    3.9088448 -0.072042406   -8.1679166    -16.46195  -0.26265729   -8.5723005            0            0            0   0.61361011   -0.1937688   -39.530007 
   19700    40.414702    6020.7914    5503.9651   -1931.7765    744.53992    3.6170977 -0.024437728   -17.145059   -16.533029  -0.22645745   -17.910784      3.88355  -0.07018273   -8.2422478   -16.386696  -0.24624035   -8.3146259            0            0            0     0.624212   -0.1896426   -39.524543 
   19800    40.414702    5489.4378    6165.0711   -1573.7633    731.72011    3.5705874  0.025237075   -17.103422   -16.513327  -0.11553022   -17.866186    3.8833172  0.059277259    -8.183338   -16.353254  -0.16882772   -8.3457775            0            0            0   0.63481389   -0.1855164   -39.519079 
   19900    40.414702    6104.8951    5489.4853   -2308.9032    732.73169    3.6175154 -0.014166922   -17.176388   -16.494788  -0.19881489   -17.844093    3.9303159 0.0066687493   -8.2466302   -16.335202  -0.20830776   -8.2920951            0            0            0   0.64541578  -0.18139019   -39.513616 
   20000    40.414702    6047.4597    4990.6916    -2468.719    749.33946    3.6239558 -0.009740368   -17.133536   -16.467005  -0.18239389   -17.929203    3.9207823  -0.02929156   -8.1444225   -16.274549  -0.18143502   -8.2995403            0            0            0   0.65601767  -0.17726399   -39.508152 
   20100    40.414702    6488.2789    6784.2703   -912.97367    741.04631    3.6374451  0.051040748   -17.097439   -16.432125  -0.15786378   -18.015989    3.9953497  0.043863733   -8.0782215   -16.276913 -0.081132101   -8.4279846            0            0            0   0.66661957  -0.17313779   -39.502688 
   20200    40.414702    6299.6961    6183.4394   -571.91921     759.6335    3.7147517   0.03224532   -17.054783   -16.379186  -0.13534304   -18.014628    3.9705486   0.10334888   -8.1420433   -16.264105 -0.088629767   -8.5366176            0            0            0   0.67722146  -0.16901158   -39.497225 
   20300    40.414702     7007.105    7301.2678    165.30763    739.74135    3.7164854  0.023064544   -17.096111   -16.378776  -0.17974966   -18.020761    3.9696277  0.029697849   -8.1893691   -16.204907  -0.16756676   -8.5694894            0            0            0   0.68782335  -0.16488538   -39.491761 
   20400    40.414702    7535.9817    6988.1324    1202.9732    756.83119    3.7453885  0.021185002    -17.20097   -16.315376  -0.20088705   -18.197847    4.0804423  0.082447642   -8.2679699   -16.208254  -0.16390722   -8.7233189            0            0            0   0.69842524  -0.16075918   -39.486297 
   20500    40.414702    8204.2465    8211.2107    1452.2603     759.9826     3.771823  0.064726314   -17.260819   -16.346475   -0.1815458   -18.101377    4.1270625   0.16297684    -8.417193   -16.187819 -0.090055886   -8.6028667            0            0            0   0.70902713  -0.15663298   -39.480833 
   20600    40.414702    8969.2972    8925.6395    2353.4922    741.97672    3.8138346 -0.010068425   -17.218868   -16.362922  -0.21295852    -18.07983    4.1378852  0.081060995   -8.3660424    -16.14147  -0.15067238   -8.6674119            0            0            0   0.71962902  -0.15250677    -39.47537 
   20700    40.414702    8434.5722    8461.3897    2464.1832    760.31261    3.7496249 0.0089643397   -17.241076   -16.277232  -0.17233634   -18.062955    4.1527897  0.043780702   -8.3855343   -16.060624  -0.10231381   -8.6034492            0            0            0   0.73023091  -0.14838057   -39.469906 
   20800    40.414702    7626.0792     8001.001     845.1661     751.4218    3.7464001 -0.040454289   -17.372006   -16.274334  -0.21337758   -18.064447     4.127386 -0.0097707051   -8.4837209   -16.063586  -0.10043418   -8.5148015            0            0            0   0.74083281  -0.14425437   -39.464442 
   20900    40.414702    7381.7887    6654.2969    38.574161    757.77525    3.8623513 -0.043058494   -17.253009   -16.345918  -0.22212919   -18.043609    4.2193122 -0.076496271   -8.3176146    -16.10047   -0.2334138   -8.5374051            0            0            0    0.7514347  -0.14012816   -39.458979 
   21000    40.414702    6771.3151    6941.5401   -132.64993    760.33136    3.7893178 -0.021616238   -17.124102   -16.331289  -0.20392968    -17.97676    4.1841665 -0.041721942   -8.2432864   -16.128427  -0.24208027   -8.4264856            0            0            0   0.76203659  -0.13600196   -39.453515 
   21100    40.414702    6695.2616    6935.5998   -120.10521    749.15412    3.8377054 0.0012755052   -17.118108   -16.279309  -0.23204393   -17.993441    4.1630248  0.051713015   -8.2239661   -16.084469  -0.28116292   -8.4641467            0            0            0   0.77263848  -0.13187576   -39.448051 
   21200    40.414702      6438.03    6736.3015   -801.85285    750.49177    3.8924929 -0.024962595   -17.101483   -16.316591  -0.25430192   -17.988277    4.2219262 -0.055618189   -8.1423717   -16.134665  -0.30542341   -8.4301922            0            0            0   0.78324037  -0.12774956   -39.442587 
   21300    40.414702    5195.3524    6227.7334   -1995.9027    744.49056    3.8625057 -0.022275872   -17.039322   -16.252047   -0.2520937   -17.920379    4.1735704 -0.087693622   -8.1168001   -16.141045  -0.28485768   -8.4098422            0            0            0   0.79384226  -0.12362335   -39.437124 
   21400    40.414702    5927.2894    6227.5585     -1996.43    733.09277    3.8300712 -0.048044093   -17.030477   -16.227062  -0.21460143   -17.857348    4.0942347 -0.068777906   -8.0417333    -16.12348  -0.24831546   -8.3415163            0            0            0   0.80444415  -0.11949715    -39.43166 
   21500    40.414702    5649.8438    5879.6033    -1908.292    749.94855    3.9098071 -0.040969682   -17.036907   -16.272137  -0.18723136   -17.895954    4.1610978  -0.10537689   -8.0569582    -16.16135  -0.24925656   -8.3487387            0            0            0   0.81504605  -0.11537095   -39.426196 
   21600    40.414702    5959.8145    6098.8447   -2133.4379    748.37951    3.8813853 -0.049874879   -17.058766   -16.230619  -0.22841484   -17.865405    4.1187711  -0.04695825   -8.1186981   -16.176421  -0.21831418   -8.3106663            0            0            0   0.82564794  -0.11124475   -39.420733 
   21700    40.414702    6144.2633     6857.836   -173.66983    743.75766    3.7906326   -0.0344505   -17.067012   -16.209482  -0.21600177   -17.923756    4.0493017 -0.020734158    -8.183806   -16.117046  -0.19357332   -8.3859156            0            0            0   0.83624983  -0.10711854   -39.415269 
   21800    40.414702    6742.2729    6671.9325   -237.04697    756.63559    3.8607595 -0.035155339   -17.029143   -16.285069  -0.17654779   -17.957766    4.1928571 -0.076045251   -8.1413985   -16.126699  -0.15524226   -8.4326941            0            0            0   0.84685172  -0.10299234   -39.409805 
   21900    40.414702    7359.2824    7133.0525   -123.04566    749.44295    3.8584131 -0.040705859    -17.16758   -16.329187  -0.19189813   -17.984154    4.1742159 -0.0024047943   -8.2676146   -16.111137  -0.13316405   -8.4506061            0            0            0   0.85745361 -0.098866137   -39.404341 
   22000    40.414702    7631.4424    7796.8477    815.42463    746.07148    3.7426154   -0.1031494   -17.208876   -16.249603  -0.17858717   -18.055315    4.0768338 -0.057141672   -8.2789784   -15.993587  -0.15845725   -8.5633193            0            0            0    0.8680555 -0.094739934   -39.398878 
   22100    40.414702      8809.05     7796.356    2085.4941     762.5058    3.8669379  0.018581249   -17.120708   -16.317948  -0.18502974   -18.046241    4.2467126  0.053269322   -8.2076896   -16.125762  -0.17020559   -8.5842121            0            0            0   0.87865739 -0.090613731   -39.393414 
   22200    40.414702     8944.388     8415.334    1988.7219     760.0285    3.8492363  0.094766304   -17.103505   -16.310063  -0.17834768   -18.011223    4.2530126   0.12297707   -8.2051533   -16.109592  -0.17449854   -8.5865155            0            0            0   0.88925929 -0.086487529    -39.38795 
   22300    40.414702    8336.0829    8361.3606    2264.6224    750.59163    3.7805487  0.044608412   -17.160768   -16.196134  -0.17026992   -18.062105    4.1303213  0.044665786   -8.2284972   -16.040049  -0.15262001   -8.6003123            0            0            0   0.89986118 -0.082361326   -39.382487 
   22400    40.414702    7313.0376    7416.5485    545.44441    757.73259    3.8818217  0.022423426   -17.206408   -16.283276  -0.11322784   -18.083105    4.2168496 -0.045781351   -8.3079793   -16.148676  -0.17038629   -8.5805079            0            0            0   0.91046307 -0.078235123   -39.377023 
   22500    40.414702    7334.4715     7520.953    393.85965    743.95227    3.9049092  0.017855544   -17.154196   -16.247444 -0.035217295   -17.931588    4.1832335 -0.042839357   -8.2762927   -16.061879 -0.060536376    -8.395793            0            0            0   0.92106496  -0.07410892   -39.371559 
   22600    40.414702    7198.7498    7290.9586    428.34806    749.56671    3.8443364  0.042326647    -17.08457   -16.169893 -0.060814057   -17.836539    4.1131327  0.008241897   -8.1678205   -16.022716 -0.078140666   -8.2691866            0            0            0   0.93166685 -0.069982717   -39.366095 
   22700    40.414702    7177.5201    6930.0882   -570.22328    746.22868    3.9178923  0.098802425    -17.03421   -16.189552  -0.15196038   -17.843757    4.1592654   0.10312037    -8.115415    -16.11784  -0.19295906   -8.3096461            0            0            0   0.94226874 -0.065856515   -39.360632 
   22800    40.414702    6240.2952    6515.4148   -1309.2543    742.20034    3.9842764   0.15215423   -17.062812   -16.226386  -0.15691572   -17.853157     4.209443   0.23091787   -8.0888089   -16.127117  -0.14581885   -8.3473883            0            0            0   0.95287063 -0.061730312   -39.355168 
   22900    40.414702    5847.4368    5958.9253   -2112.3104    749.32073    3.8702385   0.13544015   -16.979037   -16.154553    -0.149368   -17.868844    4.1614988    0.1640316   -8.0365414   -16.024387  -0.12189297   -8.3523722            0            0            0   0.96347253 -0.057604109   -39.349704 
   23000    40.414702    5311.3452    6029.7452   -1991.3732    760.06335    3.9052848  0.091871556   -16.963202   -16.118909 -0.057819283    -17.82497    4.1969778  0.052411476   -7.9906031   -16.012139 -0.055694878   -8.2585527            0            0            0   0.97407442 -0.053477906   -39.344241 
   23100    40.414702    6427.9135    6245.9494   -1390.3043    756.09147    3.9564865  0.069004442   -16.902353   -16.184783 0.0099616261   -17.854552    4.2581894  0.078400036   -7.9441706   -15.998006  0.033645345    -8.321029            0            0            0   0.98467631 -0.049351704   -39.338777 
   23200    40.414702    6607.3777    7252.4412   -263.66088     737.7113    3.9970446  0.067430727   -16.936734   -16.165868  0.016086657   -17.922593    4.3645049  0.078347398   -8.0419321   -15.982508  0.036595049   -8.4186096            0            0            0    0.9952782 -0.045225501   -39.333313 
   23300    40.414702    7500.8586    7164.6281   -237.87818    749.54718    3.9930592   0.13151228   -16.988184   -16.086633 -0.054442554    -17.86208    4.3634404   0.17364963   -8.1515952   -15.939531 -0.055015864   -8.3168832            0            0            0    1.0058801 -0.041099298   -39.327849 
   23400    40.414702    7024.2186    7209.3591   -734.27388     765.4354    4.0455411   0.21701919   -17.038642   -16.129833 -0.096877562   -17.928286    4.3801584   0.27980061   -8.1452444   -15.912396 -0.070378607   -8.3658343            0            0            0     1.016482 -0.036973095   -39.322386 
   23500    40.414702    7387.8567     7353.923     346.2026    746.27589    4.0881504   0.22061013   -17.161396   -16.057827 -0.046353709   -17.839067    4.4080806   0.26086755   -8.2548769   -15.867487 0.0042446872   -8.3089985            0            0            0    1.0270839 -0.032846892   -39.316922 
   23600    40.414702    7602.3438    7529.9459    513.66065    759.71027    4.0509867   0.18074668   -17.138044   -16.004837  -0.04612466   -17.851731    4.3737017   0.21836047   -8.2471448   -15.827372 -1.7639396e-05   -8.4263748            0            0            0    1.0376858  -0.02872069   -39.311458 
   23700    40.414702    8277.1798    7840.4942    1887.7912    755.49463    4.1023219  0.081165548   -17.071894    -16.00366   0.02148937   -17.889104    4.4461885   0.11209854   -8.1867096   -15.805146  0.059963213   -8.4272371            0            0            0    1.0482877 -0.024594487   -39.305995 
   23800    40.414702    8202.0892    7568.7569    1925.1806    749.43384    4.1393633  0.091220032   -17.047007   -16.020641  0.025504993   -17.963643    4.4937998  0.092610389   -8.1522432   -15.833703  0.063414531   -8.4958043            0            0            0    1.0588895 -0.020468284   -39.300531 
[...]
  999000    40.414702    6974.1579    6355.9565   -1312.6134      749.039    107.52169    40.284499    36.306268    87.346153    40.137988     35.42484    107.88784    40.349783    45.240481    87.557159    40.148298    44.960236            0            0            0    104.44853    40.218261    13.981633 
  999100    40.414702    6885.3948    6970.6168   -738.31504     749.2771    107.52701    40.284731    36.289757    87.407117    40.143049    35.489251    107.87105    40.322308    45.189742    87.607032    40.146511    45.032247            0            0            0    104.45914    40.222387    13.987096 
  999200    40.414702    6961.4138    6827.2631   -695.18588    750.32103    107.54781     40.26032    36.277199    87.452022    40.153806    35.472221    107.86016    40.283097    45.161496     87.59071    40.130581    45.027766            0            0            0    104.46974    40.226514     13.99256 
  999300    40.414702     7126.597    6510.7833   -503.66553    753.16135    107.57391    40.267948    36.279142    87.444847    40.140133    35.419896    107.86095    40.220347     45.19706    87.537758    40.124233    44.951111            0            0            0    104.48034     40.23064    13.998024 
  999400    40.414702    6665.3128    7073.8538    207.48022    760.43039    107.54266     40.26916    36.307401    87.489848    40.082953    35.428371    107.76771    40.182363    45.191305    87.633098    40.050988    44.927125            0            0            0    104.49094    40.234766    14.003488 
  999500    40.414702    7560.6642    7172.0952    415.13134    753.46874    107.55363    40.309019    36.298231    87.497273    40.074635    35.397249    107.81709    40.252136    45.214843    87.612109    40.064738    44.859907            0            0            0    104.50154    40.238892    14.008951 
  999600    40.414702    7121.5859    7520.4196    1489.4909    746.19903    107.57853    40.269358    36.231767    87.431611    40.057543    35.429702     107.8621    40.253212    45.150597    87.542084    39.987788    44.927407            0            0            0    104.51215    40.243018    14.014415 
  999700    40.414702    7212.4759    7668.9161   -34.595113    741.50987    107.55693    40.228179     36.24503    87.413594    40.062188    35.458767    107.84398    40.255399    45.143915    87.560399    39.997891     44.91823            0            0            0    104.52275    40.247145    14.019879 
  999800    40.414702     6953.006    7464.3155    574.35977    747.11446    107.53062    40.222794    36.253669    87.418769    40.106883    35.503578    107.85958    40.217643    45.153712    87.543337    40.052823    44.977801            0            0            0    104.53335    40.251271    14.025342 
  999900    40.414702    7871.2038    7821.6801    323.68507    741.31697    107.50471    40.249146    36.256822    87.416876    40.114406    35.459945    107.82817    40.236307    45.150113    87.570597    40.113495    44.984677            0            0            0    104.54395    40.255397    14.030806 
 1000000    40.414702     7350.191    7704.3197    600.05688    752.53653    107.45677    40.297968    36.342315    87.411842    40.132536    35.419294     107.7603    40.235564     45.22445    87.604563    40.129209    44.950727            0            0            0    104.55455    40.259523     14.03627 
 1000100    40.414702    7452.8087    7454.0912    852.07115    747.44462    107.48393    40.329792    36.323353    87.389436    40.143379     35.41246    107.82678    40.294851    45.185649    87.593926    40.102327    44.894729            0            0            0    104.56516    40.263649    14.041734 
 1000200    40.414702     7094.547    7235.7575   -28.784327    753.40896    107.51153    40.382816     36.42848    87.395702     40.17041    35.438226     107.8501    40.400728    45.363619    87.558091    40.135807    44.964894            0            0            0    104.57576    40.267776    14.047197 
 1000300    40.414702    6926.8654    6734.2458   -963.16184    752.40258    107.55665    40.428508    36.385503     87.41811    40.226229    35.448947    107.85118    40.425495    45.349063    87.497903    40.200931    44.942072            0            0            0    104.58636    40.271902    14.052661 
 1000400    40.414702    7351.4125    6840.1656   -426.77396     739.2634    107.56798    40.478366    36.359884    87.386269    40.261814    35.509705    107.82691    40.447672     45.31938    87.524829    40.232731    44.981974            0            0            0    104.59696    40.276028    14.058125 
 1000500    40.414702    6873.5241    6715.0838      20.1007    751.24939    107.55483    40.401739    36.416252    87.464783    40.336146    35.524621    107.79124    40.403607     45.29814    87.603021    40.364355    45.015657            0            0            0    104.60756    40.280154    14.063588 
 1000600    40.414702    7082.9415    6847.3725   -181.93806    753.48979    107.57315    40.423178    36.403839    87.466453     40.29766    35.521709    107.81442    40.451382    45.272117    87.613295    40.303852    45.026742            0            0            0    104.61817     40.28428    14.069052 
 1000700    40.414702    7348.6624    6601.2827   -83.842329    744.42552    107.55791    40.524359    36.361908    87.445182    40.290419     35.55126    107.85048    40.566727    45.282854    87.578335    40.350301    45.065661            0            0            0    104.62877    40.288407    14.074516 
 1000800    40.414702    7131.9157    6852.9566   -615.43101    725.47271    107.54702    40.514184    36.383978    87.507607    40.243507    35.515112    107.90886      40.6078      45.3159    87.590274    40.337583    45.034007            0            0            0    104.63937    40.292533     14.07998 
 1000900    40.414702    6946.1839    6965.9487    488.40058    752.36608    107.54756    40.503194    36.405571    87.489842    40.291746    35.560343    107.91149    40.610076       45.352    87.650537    40.303278    44.995238            0            0            0    104.64997    40.296659    14.085443 
 1001000    40.414702    7324.7543    7304.7706    321.19652    748.86501    107.59047    40.454872    36.401763    87.430832    40.375791    35.523949     107.9645    40.542598        45.37    87.634242    40.403949    44.941603            0            0            0    104.66057    40.300785    14.090907 
 1001100    40.414702    6539.6322    6974.7742   -245.65376    763.39859    107.64653    40.455274    36.389187    87.476513    40.433932     35.50012    107.96105    40.514579    45.295406    87.748101    40.498047    44.984458            0            0            0    104.67117    40.304911    14.096371 
 1001200    40.414702    7179.4296    7228.8756   -139.78335    754.07232    107.63432    40.518896    36.364089    87.522113     40.40371     35.51812    107.91094    40.472434    45.220386    87.739971    40.418283    45.006931            0            0            0    104.68178    40.309038    14.101834 
 1001300    40.414702    7155.5974    7089.9022   -359.56622    747.96414    107.69605    40.580327    36.419246    87.503992    40.314505    35.550456    108.03003    40.567164    45.257813    87.611749    40.265242    45.100501            0            0            0    104.69238    40.313164    14.107298 
 1001400    40.414702    7333.8093    6875.7565    502.18058    737.77907     107.7333    40.659687    36.368782    87.584105    40.334271    35.536747    108.03661    40.686186    45.200307    87.651197    40.269084    45.073663            0            0            0    104.70298     40.31729    14.112762 
 1001500    40.414702    8015.7959    7716.1235    1354.9553    740.66043     107.6784    40.611348    36.363392     87.65696    40.332571    35.471845     107.9575    40.575227     45.22064    87.691772    40.318981    44.982696            0            0            0    104.71358    40.321416    14.118226 
 1001600    40.414702    7180.2498    7687.8298     326.0324    750.73525    107.75587    40.498972    36.418625    87.630928    40.342961    35.546348    108.02151    40.509129    45.307758    87.750732    40.366364    45.027484            0            0            0    104.72418    40.325543    14.123689 
 1001700    40.414702     7227.034    7436.2998    1048.4726    735.26163     107.7448    40.479381    36.490051    87.646829    40.362045    35.590658    107.96654    40.516098    45.439912    87.821023    40.394007    45.088862            0            0            0    104.73479    40.329669    14.129153 
 1001800    40.414702    6425.7708    6447.1447   -376.23723    753.65562    107.74796    40.505549    36.431199    87.674108    40.342565    35.553765    108.02427    40.611915    45.389281    87.801895      40.3796    45.058889            0            0            0    104.74539    40.333795    14.134617 
 1001900    40.414702    7271.7513    7070.5928    518.99483     739.5488    107.79404    40.461705    36.384293      87.6014    40.269055    35.518163    108.13726    40.547329    45.330597    87.751142     40.35405    45.034447            0            0            0    104.75599    40.337921     14.14008 
 1002000    40.414702    6577.4648    6641.7684   -1242.3421    746.05512    107.82573    40.496865    36.493782    87.610534    40.244606    35.610091    108.22532     40.54657    45.370601    87.785075    40.337677    45.153987            0            0            0    104.76659    40.342047    14.145544 
 1002100    40.414702    7232.7184    6991.2499    799.41058    740.48053     107.7756    40.429057    36.532664    87.692089    40.207278     35.71402    108.16923    40.481245    45.401333    87.890141    40.323913    45.251745            0            0            0    104.77719    40.346174    14.151008 
 1002200    40.414702    7023.1677    6556.2533     56.27339    750.84001    107.78216    40.432779    36.488004      87.6765    40.253741    35.587196    108.13405    40.498333    45.392848    87.897606    40.291984    45.124089            0            0            0     104.7878      40.3503    14.156472 
 1002300    40.414702    6791.0851    6100.7677   -1418.8915    756.42504    107.85557    40.396278    36.449124    87.708909    40.316959    35.596679    108.20317    40.443024    45.349441    87.926907    40.271424    45.090101            0            0            0     104.7984    40.354426    14.161935 
 1002400    40.414702    6466.7098    6686.6969   -534.47006     747.8326    107.80176    40.415385    36.494649    87.765381    40.316081    35.630969    108.17362    40.438115     45.42685    87.917057     40.31918    45.104025            0            0            0      104.809    40.358552    14.167399 
 1002500    40.414702     7220.847    6657.4714    194.61063    744.63611    107.88204    40.457066    36.606776    87.791211    40.215296    35.699343    108.22765     40.35402    45.521442    87.895563     40.19128    45.245406            0            0            0     104.8196    40.362678    14.172863 
 1002600    40.414702    6743.9283    6559.3197   -170.71671    760.67351    107.97387    40.414693    36.502366    87.756216    40.207993    35.684484    108.30835    40.288883    45.380796    87.868067    40.195644    45.221754            0            0            0     104.8302    40.366805    14.178326 
 1002700    40.414702    7359.0932    6819.2638   -224.02684    738.47171      107.943    40.464718    36.459586    87.768484    40.215494     35.61031     108.2311    40.353763    45.368898    87.924592    40.165855    45.101725            0            0            0     104.8408    40.370931     14.18379 
 1002800    40.414702    6520.4198    6991.8419   -156.97407    745.35822    107.94657    40.441713    36.474318    87.845199    40.237273    35.624191    108.22914     40.40564    45.361528    88.068767    40.119954    45.172699            0            0            0    104.85141    40.375057    14.189254 
 1002900    40.414702    6830.5427    6907.2142   -673.14394    740.32963     107.9493    40.391953    36.541458     87.77331    40.225019     35.71192     108.2509    40.415697    45.471963    88.002464    40.131784    45.222447            0            0            0    104.86201    40.379183    14.194718 
 1003000    40.414702    6691.0665    6892.2223   -65.769239    751.26141    107.92547    40.377764    36.535494    87.824325    40.276963    35.697947      108.289    40.389656    45.488992    88.062594    40.282861    45.192926            0            0            0    104.87261    40.383309    14.200181 
 1003100    40.414702    7568.0993    6771.3091    885.71147    756.05691    107.89214    40.425666     36.50312    87.842134    40.238309    35.612546    108.27676    40.445307    45.360488    88.057094    40.272454    45.091431            0            0            0    104.88321    40.387436    14.205645 
 1003200    40.414702    7255.8315    7244.4329    533.30761    754.09068    107.90588     40.45158     36.53597    87.772458    40.269096    35.575319    108.31485     40.43607    45.411818    87.979998    40.324462    45.040267            0            0            0    104.89381    40.391562    14.211109 
 1003300    40.414702    6889.8775    7041.9305   -523.08355    737.26514    107.94145    40.534283     36.54724     87.80865    40.252026    35.655126    108.28495    40.579743    45.490056    88.038629    40.245829     45.14607            0            0            0    104.90442    40.395688    14.216573 
 1003400    40.414702     7070.429    7717.1045    622.64232    743.08958    107.92036    40.520544    36.537176    87.833772    40.321322    35.635482    108.23489    40.541063    45.475041     87.99066    40.358502    45.174828            0            0            0    104.91502    40.399814    14.222036 
 1003500    40.414702    7669.5873    7413.3111   -428.25833    745.45723    108.01288    40.530953    36.456672    87.797242    40.424133    35.635646    108.28981    40.534247    45.366247    87.928403     40.38052    45.101661            0            0            0    104.92562     40.40394      14.2275 
 1003600    40.414702     7587.586    7300.4888    974.71117    743.71566     108.0012    40.550576    36.434085    87.862724    40.451141    35.709893    108.23316    40.576457    45.281075    87.934758    40.452323    45.218778            0            0            0    104.93622    40.408067    14.232964 
 1003700    40.414702    7575.5928    7495.8804    397.57913    738.27044    107.92154     40.60515    36.531965    87.937163    40.487639    35.774346    108.14743    40.649804    45.428379    87.965295     40.53692    45.263116            0            0            0    104.94682    40.412193    14.238427 
 1003800    40.414702    7521.2325    7041.2532    130.22082    744.29862    108.01074    40.651583    36.555665    87.856549    40.443211    35.736057    108.25971    40.633823    45.449332    87.940748    40.454873    45.238438            0            0            0    104.95743    40.416319    14.243891 
 1003900    40.414702    7086.3975    7148.3873   -105.10925    733.97454    107.97271    40.645371    36.541579    87.842652     40.43043    35.679889     108.2328    40.651204    45.422369    88.003841    40.486056    45.212259            0            0            0    104.96803    40.420445    14.249355 
 1004000    40.414702    7200.0517    6889.6845     -491.698     754.0212    107.95271    40.720979    36.609421    87.891363    40.436195    35.582563    108.23454    40.780303    45.539565    88.023779    40.534123    45.076734            0            0            0    104.97863    40.424571    14.254819 
 1004100    40.414702    6900.8971    6738.7052   -91.922254    739.82436    107.99154    40.691533    36.688398     87.83718    40.478596    35.716825    108.29188    40.708378    45.614967    87.985564    40.482603    45.245663            0            0            0    104.98923    40.428698    14.260282 
 1004200    40.414702    6540.1774    6182.7995   -549.92223    755.21739    107.98699    40.626918    36.673479    87.805198    40.433584    35.751781    108.31355    40.688001    45.599695    87.964281    40.438962    45.257279            0            0            0    104.99983    40.432824    14.265746 
 1004300    40.414702    7402.0873    6466.8873   -196.96208    742.40551    107.93536    40.681077    36.578218    87.871117    40.506254    35.709622    108.28972    40.771953    45.483725    88.031565    40.555204    45.151378            0            0            0    105.01044     40.43695     14.27121 
 1004400    40.414702    6925.1279    6729.4634   -127.08963    749.29317    107.92614    40.645175    36.552977    87.848896    40.492244    35.710785    108.24988    40.666899    45.425643    88.017815    40.509801    45.211303            0            0            0    105.02104    40.441076    14.276673 
 1004500    40.414702    6423.3199    6433.7643   -132.09629    756.54419    107.98124    40.616819    36.539157    87.846034    40.503953    35.756364    108.25102    40.645722    45.407021    88.070152    40.550887    45.290516            0            0            0    105.03164    40.445202    14.282137 
 1004600    40.414702    7201.6568    6740.4374   -110.17509    747.18612    107.94645    40.628349      36.6244    87.897104    40.561886    35.773372    108.29258    40.651206    45.554589    88.076852    40.588705    45.313637            0            0            0    105.04224    40.449329    14.287601 
 1004700    40.414702    7659.7053    7404.2685     873.6565    740.27378     107.9793    40.626421    36.585443    87.863235    40.503615     35.77845    108.28385    40.623061    45.485965    88.066222    40.525795    45.270865            0            0            0    105.05284    40.453455    14.293065 
 1004800    40.414702    7290.1268    7619.2627    464.80153    735.05545    108.04753    40.644731    36.546159    87.885859    40.491397    35.733186    108.34544    40.651845     45.45861    88.045327    40.533319    45.239949            0            0            0    105.06344    40.457581    14.298528 
 1004900    40.414702    6152.4947    6913.6399   -374.00279     748.1639    108.02945    40.701901    36.656736    87.902587    40.472894    35.668548    108.33069     40.73833    45.578009     88.02828    40.465251    45.194444            0            0            0    105.07405    40.461707    14.303992 
 1005000    40.414702    6464.6698    7158.8063   -519.39927     757.4358    108.01671    40.612286     36.67541    87.938241    40.385288    35.708342    108.28722    40.681838    45.579887    88.025736    40.368804    45.288053            0            0            0    105.08465    40.465833    14.309456 
Loop time of 572.374 on 256 procs for 1000000 steps with 3280 atoms

Performance: 301.900 ns/day, 0.079 hours/ns, 1747.109 timesteps/s
99.9% CPU use with 256 MPI tasks x no OpenMP threads

MPI task timing breakdown:
Section |  min time  |  avg time  |  max time  |%varavg| %total
---------------------------------------------------------------
Pair    | 89.653     | 199.64     | 274.34     | 483.2 | 34.88
Neigh   | 0.22772    | 2.1321     | 3.7656     |  80.3 |  0.37
Comm    | 79.645     | 165.49     | 224.28     | 415.3 | 28.91
Output  | 2.5778     | 3.2338     | 3.2689     |   2.3 |  0.56
Modify  | 4.6973     | 7.5294     | 12.107     | 104.3 |  1.32
Other   |            | 194.3      |            |       | 33.95

Nlocal:    12.8125 ave 29 max 0 min
Histogram: 80 13 6 9 4 10 54 51 25 4
Nghost:    471.957 ave 815 max 0 min
Histogram: 64 16 0 15 17 0 7 9 16 112
Neighs:    879.156 ave 2118 max 0 min
Histogram: 96 0 8 7 5 16 55 46 20 3

Total # of neighbors = 225064
Ave neighs/atom = 68.6171
Neighbor list builds = 34181
Dangerous builds = 0



Total wall time: 0:09:43
