LAMMPS (16 Feb 2016)
# ------------------------ INITIALIZATION ----------------------------
echo both
#log		log.c
units           metal
dimension       3
boundary        p p p
atom_style      atomic
shell         mkdir  cfg
WARNING: Shell command 'mkdir' failed with error 'File exists' (../input.cpp:1126)
shell         mkdir  dump
WARNING: Shell command 'mkdir' failed with error 'File exists' (../input.cpp:1126)


# ----------------------- ATOM DEFINITION & Force Field -------------
lattice         fcc 3.615 #origin 0.0 0.0 0.0 orient x 1 -1 0 orient y 1 1 -2 orient z 1 1 1
Lattice spacing in x,y,z = 3.615 3.615 3.615
variable        Lx equal 65
variable        Ly equal 3
variable        Lz equal 260
variable        boxLZ equal 270
region          SYSTEM block -${Lx} ${Lx} -${Ly} ${Ly} -${Lz} 0 units lattice
region          SYSTEM block -65 ${Lx} -${Ly} ${Ly} -${Lz} 0 units lattice
region          SYSTEM block -65 65 -${Ly} ${Ly} -${Lz} 0 units lattice
region          SYSTEM block -65 65 -3 ${Ly} -${Lz} 0 units lattice
region          SYSTEM block -65 65 -3 3 -${Lz} 0 units lattice
region          SYSTEM block -65 65 -3 3 -260 0 units lattice
region          BOX block -${Lx} ${Lx} -${Ly} ${Ly} -${boxLZ} 5 units lattice
region          BOX block -65 ${Lx} -${Ly} ${Ly} -${boxLZ} 5 units lattice
region          BOX block -65 65 -${Ly} ${Ly} -${boxLZ} 5 units lattice
region          BOX block -65 65 -3 ${Ly} -${boxLZ} 5 units lattice
region          BOX block -65 65 -3 3 -${boxLZ} 5 units lattice
region          BOX block -65 65 -3 3 -270 5 units lattice
create_box      1 BOX
Created orthogonal box = (-234.975 -10.845 -976.05) to (234.975 10.845 18.075)
  16 by 1 by 32 MPI processor grid
create_atoms    1 region SYSTEM
Created 812760 atoms

delete_atoms     porosity BOX 0.0002 21929
Deleted 178 atoms, new total = 812582

#---------------------------------------------------------------------


pair_style      eam/alloy
pair_coeff  	  * * Cu01.eam.alloy Cu

#----------------------------------------------------------------------
velocity       all create 300.0 21061 mom yes rot yes dist gaussian
fix             1 all npt temp 300 300 0.1 iso 0.0 0.0 2
run      10000
Neighbor list info ...
  1 neighbor list requests
  update every 1 steps, delay 10 steps, check yes
  max neighbors/atom: 2000, page size: 100000
  master list distance cutoff = 7.50679
  ghost atom cutoff = 7.50679
  binsize = 3.75339 -> bins = 126 6 265
Memory usage per processor = 2.15788 Mbytes
Step Temp E_pair E_mol TotEng Press Volume 
       0          300   -2874588.8            0   -2843078.5    2934.2391     10133330 
   10000    299.51013   -2842425.5            0   -2810966.6    20.572853     10270313 
Loop time of 128.009 on 512 procs for 10000 steps with 812582 atoms

Performance: 6.750 ns/day, 3.556 hours/ns, 78.119 timesteps/s
99.9% CPU use with 512 MPI tasks x no OpenMP threads

MPI task timing breakdown:
Section |  min time  |  avg time  |  max time  |%varavg| %total
---------------------------------------------------------------
Pair    | 34.919     | 81.55      | 89.726     | 110.5 | 63.71
Neigh   | 0.00021601 | 0.067445   | 0.092595   |   5.8 |  0.05
Comm    | 2.7917     | 11.991     | 37.689     | 137.1 |  9.37
Output  | 0.00079012 | 0.00079897 | 0.00082707 |   0.0 |  0.00
Modify  | 26.453     | 33.279     | 88.342     | 174.0 | 26.00
Other   |            | 1.12       |            |       |  0.88

Nlocal:    1587.07 ave 1815 max 0 min
Histogram: 16 0 0 0 16 0 0 8 160 312
Nghost:    4600.38 ave 5158 max 502 min
Histogram: 16 0 0 15 1 0 16 0 102 362
Neighs:    111777 ave 127767 max 0 min
Histogram: 16 0 0 16 0 0 0 10 59 411

Total # of neighbors = 57229629
Ave neighs/atom = 70.4294
Neighbor list builds = 11
Dangerous builds = uuunfix 1

fix            2 all nvt temp 300.0 300.0 0.1

run      10000
Memory usage per processor = 2.15847 Mbytes
Step Temp E_pair E_mol TotEng Press 
   10000    299.51013   -2842425.5            0   -2810966.6    20.572853 
   20000    300.29951   -2842384.2            0   -2810842.4   -419.80135 
Loop time of 123.582 on 512 procs for 10000 steps with 812582 atoms

Performance: 6.991 ns/day, 3.433 hours/ns, 80.918 timesteps/s
99.9% CPU use with 512 MPI tasks x no OpenMP threads

MPI task timing breakdown:
Section |  min time  |  avg time  |  max time  |%varavg| %total
---------------------------------------------------------------
Pair    | 34.601     | 80.27      | 89.518     | 108.8 | 64.95
Neigh   | 2.0027e-05 | 0.0060433  | 0.0072181  |   1.7 |  0.00
Comm    | 2.7097     | 11.771     | 36.625     | 137.2 |  9.53
Output  | 0.00020504 | 0.00021768 | 0.00024819 |   0.0 |  0.00
Modify  | 19.876     | 26.968     | 81.044     | 190.8 | 21.82
Other   |            | 4.567      |            |       |  3.70

Nlocal:    1587.07 ave 1815 max 0 min
Histogram: 16 0 0 0 16 0 0 10 151 319
Nghost:    4604.23 ave 5140 max 500 min
Histogram: 16 0 0 12 4 0 16 0 92 372
Neighs:    111758 ave 128475 max 0 min
Histogram: 16 0 0 16 0 0 0 12 134 334

Total # of neighbors = 57220302
Ave neighs/atom = 70.4179
Neighbor list builds = 1
Dangerous builds = 0
reset_timestep 0
unfix    2
#---------------------- DEFINE Laser GERION and GROUP ----------------
region       R1  block -75  75  INF  INF  INF  5  units box
group        G1 region R1
259395 atoms in group G1
group        G2 subtract all G1
553187 atoms in group G2


#define     temperature/pressure calculation  group
variable    x1atom atom "x>=0  &&  x<4 &&  z>-40 && z<1"     ##NEW!!!!!!!!!!!!
variable    x2atom atom "x>=-234.98  &&  x<-230.98 &&  z>-40 && z<1"
variable    x3atom atom "x>=0  &&  x<4 &&  z>-20 && z<1"
variable    x4atom atom "x>=-234.98  &&  x<-230.98 &&  z>-20 && z<1"
variable    x5atom atom "x>=196  &&  x<200 &&  z>-40 && z<1"

group       x1atom variable x1atom
331 atoms in group x1atom
group       x2atom variable x2atom
276 atoms in group x2atom
group       x3atom variable x3atom
167 atoms in group x3atom
group       x4atom variable x4atom
144 atoms in group x4atom
group       x5atom variable x5atom
384 atoms in group x5atom


compute      COM1x x1atom com
compute      COM2x x2atom com
compute      COM3x x3atom com
compute      COM4x x4atom com
compute      COM5x x5atom com

compute      COMall all com

#Temperature profile
#variable      Tprofile atom 300*(1+(step/5000)*2.5*exp(z/40))
#variable tmp equal "lz"
#variable L0 equal ${tmp}
variable      Tprofile atom  300+600*(step/5000)*exp(z/40)*exp(-x*x/1289)


# ------------------------- SETTINGS ---------------------------------
thermo          100
thermo_style    custom step lx pxx pyy pzz temp c_COM1x[1] c_COM1x[2] c_COM1x[3] c_COM2x[1] c_COM2x[2] c_COM2x[3] c_COM3x[1] c_COM3x[2] c_COM3x[3] c_COM4x[1] c_COM4x[2] c_COM4x[3]  c_COM5x[1] c_COM5x[2] c_COM5x[3] c_COMall[1] c_COMall[2] c_COMall[3]

timestep       0.002


compute dispall all displace/atom
# ---------------- Run Laser Material Interaction --------------------
#dump          1 all custom 1000 dump/z1dump.atom id type x y z c_dispall[1]  c_dispall[2]  c_dispall[3] c_dispall[4]
#dump          2 all cfg 100 cfg/*.cfg mass type xs ys zs
#dump_modify   2 element Al

#relax for 2 PS
#fix           1 all nvt temp 300.0 300.0 0.1
#run  1000
#unfix         1

fix           1  all nve
fix           3temp  all  langevin  v_Tprofile  0  0.1  378411   #TEST ALL
run           5000
Memory usage per processor = 2.53347 Mbytes
Step Lx Pxx Pyy Pzz Temp COM1x[1] COM1x[2] COM1x[3] COM2x[1] COM2x[2] COM2x[3] COM3x[1] COM3x[2] COM3x[3] COM4x[1] COM4x[2] COM4x[3] COM5x[1] COM5x[2] COM5x[3] COMall[1 COMall[2 COMall[3 
       0    472.05813   -410.94728    -434.2388   -414.21796    300.29951    2.2671159   -1.0383124   -19.820261   -233.33148   -0.9914149   -19.286215     2.329804   -1.0566838   -8.9725732   -233.33626  -0.97057687   -9.2965775    198.04411   -1.0184602   -19.397485  -0.91198013  -0.90777505   -469.90836 
     100    472.05813   -461.24745   -434.54452   -447.59311    299.96008    2.2576957   -1.0424116   -19.809104   -233.33406    -1.000713   -19.272685    2.3283965    -1.063632   -8.9568974   -233.34663  -0.96242313   -9.2909501    197.99988   -1.0035746   -19.408846  -0.91203852   -0.9072383   -469.90912 
     200    472.05813   -420.55453   -415.87814   -445.24738    299.97421    2.2495593   -1.0483174   -19.787686   -233.34755  -0.98129458   -19.280484    2.3294771   -1.0725726   -8.9482241   -233.37104  -0.95923553   -9.3124363    198.01326   -1.0117944   -19.412159   -0.9125454  -0.90693517   -469.90952 
     300    472.05813   -451.63484    -433.9766   -459.52465    299.82616    2.2538867   -1.0426662   -19.778229   -233.34024  -0.95597204   -19.284906    2.3111712   -1.0577351   -8.9203948   -233.34977   -0.9376609   -9.3172339    198.01895   -1.0201953   -19.393638  -0.91267518  -0.90692903   -469.90975 
     400    472.05813   -393.73486   -407.28965   -426.85342    299.71906    2.2592643     -1.03719   -19.779378   -233.34349  -0.95520008   -19.278973     2.320408   -1.0558685   -8.9101324    -233.3589  -0.95030498   -9.3104495    198.02213   -1.0242514   -19.398186  -0.91272896  -0.90650739   -469.91021 
     500    472.05813   -425.61003   -402.39806   -422.32809    300.50503     2.244237   -1.0295178   -19.793842   -233.33674  -0.95263944    -19.29036    2.3095088   -1.0494923   -8.9203961   -233.35479  -0.96269518   -9.3129461    198.01885    -1.028073   -19.384594  -0.91307032  -0.90646187      -469.91 
     600    472.05813   -407.08608   -411.72286   -422.20111    300.69948    2.2558915   -1.0238856   -19.781959   -233.32677  -0.98443144   -19.280034    2.3244991   -1.0509996   -8.8911153   -233.34514   -0.9767541   -9.3127129    198.02874   -1.0329411   -19.380067  -0.91235984  -0.90651262   -469.90958 
     700    472.05813   -407.25675   -410.56287   -405.80758    299.96965    2.2694482   -1.0139462   -19.791382   -233.33806  -0.99412639    -19.28393    2.3316227   -1.0421439    -8.923511   -233.34641   -1.0153339   -9.3252348    198.01688   -1.0372362   -19.376464  -0.91222686  -0.90589211   -469.90924 
     800    472.05813   -460.68974   -407.78008   -439.76482    300.33758    2.2652232   -1.0381108   -19.787135   -233.32625  -0.99392899   -19.249031    2.3423172   -1.0633857   -8.9325774   -233.34556  -0.99042365   -9.2771002    198.01515   -1.0485715   -19.376733  -0.91272959  -0.90530921   -469.90879 
     900    472.05813   -410.12159   -428.45719   -460.97743    300.80101    2.2671759   -1.0538256   -19.800624   -233.31639  -0.97763867   -19.252418    2.3324749   -1.0718118   -8.9312241   -233.32994  -0.98820564   -9.2702676     198.0212   -1.0358596   -19.379951  -0.91270999  -0.90549873   -469.90831 
    1000    472.05813   -411.51949   -399.85616   -445.32195    300.83329    2.2701592   -1.0515231   -19.799907    -233.3024  -0.98197732   -19.255116    2.3323154   -1.0577127     -8.91222   -233.30863  -0.98402096   -9.2840426     198.0366   -1.0420207   -19.385592  -0.91248325  -0.90550079   -469.90868 
    1100    472.05813   -426.47283   -399.75734   -429.38362    301.02606    2.2490637   -1.0651653   -19.797005   -233.29972  -0.98210253   -19.262464     2.315985   -1.0686153   -8.9022895   -233.30865   -1.0024749   -9.3028877    198.02905   -1.0314976     -19.3709  -0.91254919  -0.90510726   -469.90839 
    1200    472.05813   -392.50038   -324.43984   -409.89464    300.63758    2.2676498   -1.0701923   -19.797339   -233.29439  -0.95960464   -19.303001    2.3488379   -1.0640397   -8.9195156   -233.29232  -0.96930453   -9.3378207    198.03137   -1.0357754   -19.360546  -0.91236845  -0.90530188   -469.90811 
    1300    472.05813   -384.97114   -401.46265   -415.47086    301.01279    2.2423327   -1.0738912   -19.793432   -233.29584  -0.97326951   -19.291967    2.3122415   -1.0645151   -8.8942387   -233.30621  -0.97576193    -9.327595    198.03576   -1.0458519   -19.375906  -0.91192444  -0.90519118   -469.90751 
    1400    472.05813   -359.44059   -384.56313   -421.11744    301.19454    2.2467855   -1.0815574   -19.771431   -233.30132  -0.98788041   -19.289084    2.3283139   -1.0654741   -8.8726495   -233.30034  -0.98316916   -9.3049995    198.03732   -1.0564187   -19.371337  -0.91192822  -0.90464133   -469.90704 
    1500    472.05813   -391.06743   -372.23056   -407.84683    300.87278    2.2557035   -1.0897814     -19.7883   -233.29024  -0.98428502   -19.300788    2.3304266   -1.0839067    -8.902156   -233.28944  -0.96215466   -9.3154512    198.04059   -1.0239828   -19.383945  -0.91215057  -0.90405924   -469.90673 
    1600    472.05813   -403.15918   -394.85769   -413.07628    301.15437     2.269515   -1.0893996   -19.794459   -233.31014  -0.97476602   -19.295026    2.3444487   -1.0827498   -8.8929734   -233.32204  -0.96290204   -9.2988024    198.03408   -1.0003222   -19.375728  -0.91286698  -0.90394755   -469.90621 
    1700    472.05813   -388.07554   -362.45433   -395.79806    301.74059    2.2736895    -1.076385    -19.79534   -233.31129  -0.96501532   -19.294067    2.3373763   -1.0560471   -8.8850981   -233.33085  -0.96599701   -9.3010358    198.03414  -0.99584437   -19.395583  -0.91338993  -0.90449141   -469.90607 
    1800    472.05813   -388.65068   -361.36551   -395.50336    301.55339    2.2701803   -1.0505795   -19.785432   -233.31328  -0.97806789   -19.297454    2.3346454   -1.0388011   -8.8651607   -233.33269  -0.97666048   -9.2959251    198.03803  -0.99431166   -19.394231  -0.91355962  -0.90448726   -469.90605 
    1900    472.05813   -399.07117   -394.34085   -414.38552    301.21177    2.2721308   -1.0524765     -19.7893   -233.28842  -0.98957223   -19.287919    2.3263277   -1.0536983   -8.8774897   -233.30887  -0.96748464   -9.3007229    198.03083   -1.0072667   -19.400369  -0.91348354  -0.90471789   -469.90628 
    2000    472.05813   -396.11011   -393.68324   -412.92409    301.18215    2.2610801   -1.0723198   -19.805595   -233.29121  -0.97597574   -19.281266    2.3397487   -1.0858705    -8.904392   -233.30536  -0.96588572   -9.3088604    198.04242   -1.0232944   -19.391045  -0.91367166  -0.90456533   -469.90653 
    2100    472.05813    -414.7779   -382.43994   -426.92436    301.41691    2.2711467   -1.0614051   -19.788569   -233.29578  -0.97422036   -19.294067    2.3605041   -1.0683768   -8.8687039   -233.31151  -0.97892764   -9.2925701    198.03695   -1.0168451   -19.380003  -0.91433041  -0.90403441   -469.90706 
    2200    472.05813   -411.52723   -386.07114   -424.11086    301.17816    2.2572394   -1.0593252   -19.782575   -233.28541  -0.96868234   -19.279717      2.33771   -1.0819624   -8.8681557   -233.30519  -0.96959345   -9.2714899    198.02778   -1.0099774   -19.375336  -0.91474532  -0.90416811   -469.90729 
    2300    472.05813   -368.45241   -375.02135   -403.95578    301.83696    2.2731125   -1.0548409   -19.786905   -233.28952  -0.97054065   -19.291445    2.3662283   -1.0713517   -8.8704731   -233.29065  -0.96587467   -9.3008539    198.00621   -1.0012522   -19.376216  -0.91469753  -0.90412751   -469.90714 
    2400    472.05813   -379.46078   -387.86752   -416.12209    301.43516    2.2643771   -1.0056072   -19.793577   -233.29921  -0.98198238   -19.268747    2.3506119  -0.98420846   -8.8807311   -233.30629  -0.95578177   -9.2748103      198.029    -1.005057   -19.381683  -0.91448943  -0.90446863   -469.90719 
    2500    472.05813   -330.99424   -338.38954   -368.49359    302.06522    2.2522053   -1.0348209    -19.76328    -233.2959  -0.98912833   -19.271665     2.335284   -1.0268754   -8.8432227   -233.29931  -0.98246356   -9.2509467    198.03312   -1.0016503   -19.365022  -0.91436608  -0.90471065   -469.90704 
    2600    472.05813   -374.32526    -341.3773   -392.35119    302.27344    2.2513908   -1.0417341   -19.752211    -233.2734  -0.98938373   -19.281864    2.3307123   -1.0409547   -8.8479926   -233.29378  -0.98630904   -9.2654629    198.03755  -0.97997256   -19.359174  -0.91476208  -0.90498435   -469.90665 
    2700    472.05813   -334.81867   -329.77169   -386.73953    302.08453    2.2641927   -1.0645213   -19.770786   -233.26509   -1.0000192   -19.280994    2.3418137   -1.0572941   -8.8556513   -233.28353  -0.99753555   -9.2734273    198.04047  -0.97057643   -19.355664   -0.9146361  -0.90508366   -469.90741 
    2800    472.05813    -326.5231   -331.33033   -369.44432    301.90733    2.2808086   -1.0349131   -19.747571   -233.27716  -0.99781584   -19.273294    2.3459272   -0.9929672   -8.7991299   -233.30839   -1.0029534    -9.263819    198.03666  -0.96032522    -19.35546  -0.91450282  -0.90602997   -469.90826 
    2900    472.05813   -359.54638   -368.79423   -422.52462    301.60582    2.2872095   -1.0243688    -19.71076    -233.2959   -1.0101309   -19.270565    2.3554757   -0.9970747    -8.777137   -233.32808   -1.0208793   -9.2863551    198.04184  -0.96236191   -19.350837  -0.91427569  -0.90618704   -469.90852 
    3000    472.05813   -383.27455   -398.77306   -426.27746    302.48597    2.3065321   -1.0038521   -19.713741   -233.28455   -0.9968588   -19.283304    2.3733023  -0.96878135   -8.7562331   -233.30858   -1.0007097    -9.303881    198.03386  -0.98370602   -19.369026  -0.91391624  -0.90619197   -469.90831 
    3100    472.05813   -330.84194   -357.61863   -396.47483    302.04572    2.2977321   -1.0004487    -19.70975   -233.29877  -0.98569662   -19.283557    2.3487624  -0.98637676   -8.7666909   -233.31541   -1.0033109   -9.2877372    198.03052  -0.98470749    -19.35961   -0.9134765  -0.90632335   -469.90813 
    3200    472.05813   -379.16963   -359.44797   -402.20912    301.92096    2.2852816  -0.99301428   -19.740552   -233.30165  -0.98187231   -19.280559    2.3034714  -0.98923508   -8.7948023   -233.31533   -1.0106409   -9.2798148    198.04483  -0.98886923   -19.375194  -0.91341126  -0.90650623    -469.9082 
    3300    472.05813   -370.38046   -343.49135   -389.33441    302.47005    2.2847248  -0.99194737   -19.741924   -233.30548   -1.0002629   -19.299477     2.338653  -0.99201336   -8.7885835   -233.32061     -1.01643   -9.3072068    198.04171  -0.98291919   -19.384972    -0.913508  -0.90676824    -469.9088 
    3400    472.05813   -320.68427   -340.01844   -384.14807    302.87035    2.2688283  -0.99543731   -19.752836   -233.30788  -0.99850723   -19.271622    2.3310713   -1.0107687   -8.8174948   -233.33798   -1.0384581     -9.28052    198.03852  -0.99515692   -19.394572  -0.91386398  -0.90663291   -469.90839 
    3500    472.05813   -349.98155   -319.85443   -395.02239    302.52697    2.2686437   -1.0020818   -19.735767   -233.29625  -0.98695457   -19.295149    2.3135984   -1.0191604    -8.797063   -233.32579   -1.0129385   -9.3164075    198.04149   -0.9800897   -19.407588  -0.91397889  -0.90682239   -469.90885 
    3600    472.05813   -344.19409   -307.61007   -359.70289    302.78896    2.2806041   -1.0151021   -19.735717   -233.29142  -0.99705023   -19.284021    2.3290606   -1.0146236     -8.79009   -233.31666   -1.0098254   -9.2969372    198.05269  -0.96830949   -19.391394  -0.91413157  -0.90695732   -469.90948 
    3700    472.05813    -320.4118   -315.69813   -355.58437    302.77056    2.2885278   -1.0238789   -19.735972   -233.30984  -0.98589864   -19.283478    2.3488967   -1.0273298   -8.7916499   -233.32911  -0.99496909   -9.3069146    198.03993  -0.97317432    -19.39795  -0.91362357  -0.90732633   -469.90995 
    3800    472.05813   -313.41223   -321.26043   -340.35352    302.83403    2.2671116   -1.0179765   -19.757969   -233.31019  -0.96676792   -19.276404    2.3152703   -1.0445575   -8.7858298   -233.32714  -0.98010463   -9.2893809    198.04151  -0.95034452   -19.381204  -0.91380887  -0.90754731   -469.90957 
    3900    472.05813   -315.10183   -345.70533   -357.58351    303.32969    2.2810767   -1.0340964   -19.748413   -233.30682  -0.97774427   -19.274804    2.3354298   -1.0517057   -8.7858073   -233.33017  -0.98601355   -9.2912114    198.02768  -0.94700574   -19.378423  -0.91392154  -0.90825254   -469.90997 
    4000    472.05813   -302.36341   -320.65068    -358.3835    302.83797    2.3041132   -1.0242713   -19.733617   -233.31462  -0.96988045   -19.259958    2.3554832    -1.046176   -8.7759985   -233.33295  -0.96188777   -9.2740532    198.02564  -0.95216767   -19.355218  -0.91355679  -0.90841583   -469.90945 
    4100    472.05813   -281.15448   -289.16655   -307.63581    303.09336    2.2836006  -0.98631569   -19.728151   -233.32593  -0.99534762   -19.261308    2.3271921   -1.0036814   -8.7857768   -233.34949  -0.99184808   -9.2732671    198.02057  -0.95898376   -19.358469  -0.91359152  -0.90828019   -469.90906 
    4200    472.05813   -306.04924   -287.64187   -338.61667    302.89732    2.2611119  -0.98664902   -19.704016   -233.30821   -1.0131028   -19.283476    2.2826504   -1.0195246   -8.7643572   -233.32011   -1.0093655   -9.2943782    198.02333  -0.97603088   -19.348413   -0.9131139   -0.9083041   -469.90871 
    4300    472.05813   -297.35588   -279.26536   -324.70462    303.32738    2.2789275  -0.99567081   -19.700608   -233.33514   -1.0031037   -19.294793     2.297297    -1.046737   -8.7718068   -233.36337   -1.0170336   -9.2881248    198.01753  -0.95039838   -19.347705  -0.91292851  -0.90842811   -469.90918 
    4400    472.05813   -278.06333   -270.57223   -310.05944    303.39776    2.3117394   -1.0054347   -19.672335   -233.33559  -0.99969017   -19.287994    2.3296365   -1.0527326   -8.7384751   -233.34982   -1.0266889   -9.2780471    198.02764  -0.92837757   -19.355185  -0.91267485   -0.9086315    -469.9098 
    4500    472.05813   -262.98621    -268.1194   -300.67712    303.80526    2.2824501     -1.00814   -19.695551   -233.33984   -0.9821935   -19.290994    2.2877934    -1.034757   -8.7547104   -233.33726   -1.0169742   -9.3056312    198.03126   -0.9336165   -19.396253  -0.91303795  -0.90839272   -469.91028 
    4600    472.05813   -268.23624    -253.4305   -319.50095    303.56798    2.2893862  -0.96419893   -19.704889   -233.32631  -0.99062736   -19.283117    2.3123303   -1.0002926   -8.7563085   -233.33194   -1.0003318   -9.3221414    198.03109  -0.96172811   -19.381978  -0.91311414  -0.90877944   -469.91041 
    4700    472.05813   -237.06949   -220.89916    -269.2585    303.52446    2.2956534   -1.0045863   -19.689379    -233.3363  -0.98952613   -19.262719    2.3244882   -1.0243468   -8.7347939   -233.32599  -0.98739725   -9.2835432    198.03231  -0.95422979   -19.409972   -0.9126253  -0.90957358   -469.91125 
    4800    472.05813   -220.35989   -238.03822   -246.74267    303.59946    2.3059736  -0.98957154   -19.679779   -233.31337  -0.98817756   -19.256106    2.3410805   -1.0194885   -8.7394104   -233.31615  -0.99717482   -9.2672002    198.04721  -0.95431367   -19.402645  -0.91311705  -0.90965692   -469.91191 
    4900    472.05813   -242.57661   -242.54802   -263.50762    303.84223    2.2779478   -1.0202919   -19.661664   -233.29643  -0.99239515   -19.249318    2.3189256   -1.0684158   -8.7105727   -233.30187  -0.97235604   -9.2551726    198.06242  -0.96346195    -19.39548  -0.91292399  -0.90944812    -469.9119 
    5000    472.05813   -233.16943   -259.12104   -282.28158    303.86734    2.2739624   -1.0031528   -19.695273   -233.30991  -0.96564422    -19.23763     2.321376   -1.0430467   -8.7235722   -233.30866  -0.95437303   -9.2396187    198.04279  -0.96180377   -19.405449  -0.91289268  -0.90923679   -469.91223 
Loop time of 64.9075 on 512 procs for 5000 steps with 812582 atoms

Performance: 13.311 ns/day, 1.803 hours/ns, 77.033 timesteps/s
99.9% CPU use with 512 MPI tasks x no OpenMP threads

MPI task timing breakdown:
Section |  min time  |  avg time  |  max time  |%varavg| %total
---------------------------------------------------------------
Pair    | 17.954     | 40.687     | 45.243     |  76.2 | 62.68
Neigh   | 0.00035524 | 0.10388    | 0.12447    |   7.2 |  0.16
Comm    | 2.3945     | 6.3793     | 18.718     |  93.6 |  9.83
Output  | 0.065726   | 0.09919    | 0.39833    |  17.4 |  0.15
Modify  | 0.045786   | 2.7652     | 3.2804     |  34.0 |  4.26
Other   |            | 14.87      |            |       | 22.91

Nlocal:    1587.07 ave 1821 max 0 min
Histogram: 16 0 0 0 16 0 0 12 166 302
Nghost:    4604.15 ave 5147 max 502 min
Histogram: 16 0 0 15 1 0 16 0 99 365
Neighs:    111770 ave 128205 max 0 min
Histogram: 16 0 0 16 0 0 0 12 105 363

Total # of neighbors = 57226489
Ave neighs/atom = 70.4255
Neighbor list builds = 17
Dangerous builds = 0


variable  com1_x equal "c_COM1x[1]"
variable  com1_y equal "c_COM1x[2]"
variable  com1_z equal "c_COM1x[3]"
variable  com2_x equal "c_COM2x[1]"
variable  com2_y equal "c_COM2x[2]"
variable  com2_z equal "c_COM2x[3]"
variable  com3_x equal "c_COM3x[1]"
variable  com3_y equal "c_COM3x[2]"
variable  com3_z equal "c_COM3x[3]"
variable  com4_x equal "c_COM4x[1]"
variable  com4_y equal "c_COM4x[2]"
variable  com4_z equal "c_COM4x[3]"
variable  com5_x equal "c_COM5x[1]"
variable  com5_y equal "c_COM5x[2]"
variable  com5_z equal "c_COM5x[3]"
variable  comall_x equal "c_COMall[1]"
variable  comall_y equal "c_COMall[2]"
variable  comall_z equal "c_COMall[3]"


fix          2 all print 100 "${com1_x}   ${com1_y}   ${com1_z}  ${com2_x}   ${com2_y}   ${com2_z} ${com3_x}   ${com3_y}   ${com3_z} ${com4_x}   ${com4_y}   ${com4_z} ${com5_x}   ${com5_y}   ${com5_z} ${comall_x}   ${comall_y}   ${comall_z}" file COM.data screen no
#-------------------------- Wave Propagation -------------------------
unfix        3temp
run          1000000
Memory usage per processor = 2.53347 Mbytes
Step Lx Pxx Pyy Pzz Temp COM1x[1] COM1x[2] COM1x[3] COM2x[1] COM2x[2] COM2x[3] COM3x[1] COM3x[2] COM3x[3] COM4x[1] COM4x[2] COM4x[3] COM5x[1] COM5x[2] COM5x[3] COMall[1 COMall[2 COMall[3 
    5000    472.05813   -233.16943   -259.12104   -282.28158    303.86734    2.2739624   -1.0031528   -19.695273   -233.30991  -0.96564422    -19.23763     2.321376   -1.0430467   -8.7235722   -233.30866  -0.95437303   -9.2396187    198.04279  -0.96180377   -19.405449  -0.91289268  -0.90923679   -469.91223 
    5100    472.05813   -227.13353   -276.62267   -308.18185    303.75295    2.2786977  -0.98361762    -19.71485   -233.33177  -0.98003817   -19.250083    2.3192299   -1.0140016   -8.7031946   -233.32453  -0.98651171   -9.2627073    198.01218  -0.94104607   -19.423107  -0.91219844  -0.90888764   -469.91178 
    5200    472.05813   -267.09976   -257.97551   -330.56612    303.57214    2.2928472  -0.98162332   -19.735486   -233.34223  -0.98714407   -19.278651    2.3601924   -1.0356131   -8.7673217   -233.33869  -0.99062659   -9.2660507    198.03593   -0.9357443   -19.416445  -0.91150419  -0.90853849   -469.91134 
    5300    472.05813    -259.1556   -278.81285    -319.9204    303.89015    2.2921293  -0.98281024   -19.738039   -233.34094  -0.96417422   -19.297744    2.3840504   -1.0253417   -8.7934566   -233.33255  -0.96393389   -9.2985464    198.03233  -0.92711507   -19.401069  -0.91080994  -0.90818934   -469.91089 
    5400    472.05813   -271.81799   -268.42132   -311.34386    303.74108     2.246022   -1.0144825   -19.692996   -233.33226   -0.9643745   -19.311253    2.3276103   -1.0467158   -8.7513983   -233.33418   -0.9674011    -9.311347    198.01024  -0.90893663   -19.407447  -0.91011569  -0.90784019   -469.91045 
    5500    472.05813   -244.89246   -252.08583   -281.64414    303.36033    2.2558488   -1.0390933    -19.65359   -233.34438  -0.94729713   -19.337926    2.3339661   -1.0665984   -8.6870591   -233.36484  -0.92943527   -9.3451103    198.00896  -0.93099589   -19.387343  -0.90942145  -0.90749104      -469.91 
    5600    472.05813   -235.95078   -260.51272   -307.07974    303.69337    2.2458685   -1.0993736   -19.628065   -233.33565  -0.90692586   -19.347227    2.3382609   -1.0916365   -8.6612834   -233.36826  -0.90176916   -9.3804444    198.00724  -0.96620476   -19.357429   -0.9087272  -0.90714189   -469.90956 
    5700    472.05813   -248.11829   -243.05169   -298.08653    303.67615    2.2757683   -1.1033774   -19.593223   -233.34133  -0.92831526   -19.357687    2.3846256    -1.078752    -8.638286   -233.37341  -0.91308404   -9.3983905    197.99394  -0.96274625   -19.336371  -0.90803295  -0.90679274   -469.90912 
    5800    472.05813   -235.76068    -282.9778   -289.26746     303.6202     2.293894   -1.0943963   -19.572298    -233.3332  -0.92789968   -19.377756    2.3811335   -1.0647333   -8.6132759   -233.33953  -0.91258043   -9.4214303    198.00002  -0.97459453   -19.335052   -0.9073387  -0.90644358   -469.90867 
    5900    472.05813   -249.40958   -265.53106   -291.73906    303.90762    2.3182083    -1.109726    -19.54683   -233.32449  -0.89856086   -19.396145    2.4086878   -1.0714217    -8.557533   -233.32419  -0.90182638    -9.438554    197.99421  -0.97964363   -19.351753  -0.90664446  -0.90609443   -469.90823 
    6000    472.05813   -213.59248   -235.01436   -282.91751     303.5786    2.2899445   -1.1074286   -19.569718   -233.34291  -0.89132311   -19.403001     2.354246    -1.130686   -8.6047582   -233.33664  -0.90653852    -9.431548    197.99025  -0.98874808    -19.36237  -0.90595021  -0.90574528   -469.90778 
    6100    472.05813   -217.98377   -232.22592   -262.98321    303.73458    2.2592517   -1.0880362   -19.514572   -233.34321  -0.88321604   -19.399953    2.3337666   -1.1093496   -8.5587235   -233.33618  -0.89272222   -9.4185252    197.98562  -0.99053591   -19.362681  -0.90525596  -0.90539613   -469.90734 
    6200    472.05813   -199.47788   -200.63964   -229.61636    303.73853    2.2646743   -1.0728747   -19.482829   -233.35721  -0.87967474    -19.39912    2.3417863   -1.0971929   -8.5191492   -233.35103  -0.89869322    -9.414186    197.99883  -0.97429628   -19.375611  -0.90456171  -0.90504698   -469.90689 
    6300    472.05813   -189.82908   -202.62837   -227.16351    303.91962    2.2707694   -1.0603671   -19.434531   -233.35456  -0.92795907   -19.404089    2.3481431   -1.0635692   -8.4761912   -233.35704  -0.94745481   -9.4053916    198.02445  -0.95083761   -19.389822  -0.90386747  -0.90469783   -469.90645 
    6400    472.05813   -149.85689   -179.66735   -184.44485    303.48873    2.2973628   -1.0790062   -19.433128   -233.35788  -0.91891693   -19.361176    2.3778829    -1.079969   -8.4932359   -233.35776  -0.94041668   -9.3566318    198.01726  -0.96523341   -19.397311  -0.90317322  -0.90434868   -469.90601 
    6500    472.05813   -189.63792   -194.19706   -250.23327    303.80422    2.3300406   -1.0552878   -19.424884   -233.34325  -0.90978932   -19.345069    2.4368775    -1.055482   -8.4935809   -233.36195  -0.90669902   -9.3649002    197.99651  -0.97048874   -19.407946  -0.90247897  -0.90399953   -469.90556 
    6600    472.05813   -188.69108   -184.12672   -212.49154    303.54964    2.3074526   -1.0586547   -19.438295   -233.33674  -0.88728068    -19.35093     2.388573   -1.0478095   -8.5149963   -233.35819  -0.86662084     -9.35243    197.99535   -0.9514952   -19.420252  -0.90178473  -0.90365038   -469.90512 
    6700    472.05813   -206.57869   -198.35748   -203.62566    303.72065    2.3171939   -1.0165453   -19.406034   -233.33001  -0.91495877   -19.341548     2.401682   -0.9948148    -8.507586   -233.34758  -0.89701813   -9.3391459    198.01214  -0.92808881   -19.428107  -0.90109048  -0.90330123   -469.90467 
    6800    472.05813   -181.61344   -164.05961   -181.86015    303.36473    2.2918297   -1.0280237   -19.414223   -233.31126  -0.90683928   -19.293818    2.3976475   -1.0075775   -8.5138173   -233.34806  -0.90370859    -9.304698    198.03491  -0.91913552   -19.420273  -0.90039623  -0.90295208   -469.90423 
    6900    472.05813   -196.05633   -174.24538   -238.27157     303.7329     2.278325   -1.0150419   -19.402287   -233.31363  -0.88499329    -19.30008    2.3913475   -1.0254043   -8.4790432   -233.33444  -0.88770461   -9.3224794    198.02919  -0.90763956    -19.42486  -0.89970198  -0.90260293   -469.90378 
    7000    472.05813   -206.50787   -184.10259   -221.12094    303.70445    2.2765279  -0.99958579   -19.427087   -233.31091  -0.88967987     -19.3191    2.3863893   -1.0125327   -8.4947062    -233.3095   -0.9074069   -9.3321666    198.03335   -0.9094956   -19.408952  -0.89900774  -0.90225378   -469.90334 
    7100    472.05813    -239.2243   -252.52445   -271.32287    304.29568    2.2463035   -0.9900573   -19.418783    -233.2992  -0.90330491   -19.323006    2.3335458    -1.040991   -8.4868823   -233.28589  -0.90807962   -9.3268996    198.03509   -0.8930636   -19.383666  -0.89831349  -0.90190463   -469.90289 
    7200    472.05813   -216.03677   -198.22283   -243.92586    303.91698    2.2850689  -0.97908538   -19.431499    -233.2751  -0.87840225   -19.316856    2.3559628   -1.0109444   -8.4943221   -233.24844  -0.87319378   -9.3064467    198.06278  -0.85711843   -19.353202  -0.89761924  -0.90155548   -469.90245 
    7300    472.05813   -189.36589   -200.24809   -193.87301    303.71989    2.3040566  -0.98367419   -19.422382   -233.28892  -0.87976124   -19.300869    2.3582183  -0.98073599   -8.4722441   -233.27531  -0.88076635    -9.293611    198.05037  -0.84214896   -19.356691  -0.89692499  -0.90120633   -469.90201 
    7400    472.05813   -178.95337   -197.01799   -190.43237    303.32895    2.2842943  -0.97793726   -19.421496   -233.29672  -0.88712327   -19.282614    2.3436124  -0.95722388   -8.4787864   -233.28322  -0.88077714   -9.2720792    198.03395  -0.83113762   -19.375685  -0.89623075  -0.90085718   -469.90156 
    7500    472.05813   -175.11167   -177.63107   -182.75143    304.01127    2.2913246  -0.95575705   -19.451151   -233.28178  -0.84841394   -19.294813    2.3687727  -0.94384155   -8.5309565   -233.25624   -0.8455721   -9.2940957    198.01687  -0.80796125   -19.361187   -0.8955365  -0.90050803   -469.90112 
    7600    472.05813   -141.17036   -158.79749   -118.49368    303.57326    2.2812989  -0.95177123   -19.463194   -233.30233  -0.84312755   -19.309305    2.3587332  -0.95550508   -8.5485352   -233.27827  -0.82310921   -9.3148906    198.02262  -0.82108102   -19.343824  -0.89484225  -0.90015888   -469.90067 
    7700    472.05813   -156.17487    -168.4359   -132.56954    304.09215    2.2776591  -0.95264045   -19.467798   -233.32717  -0.86376271   -19.325606    2.3806707  -0.96983148   -8.5335641   -233.28119  -0.84815552    -9.320259    198.02194  -0.82991696   -19.371836  -0.89414801  -0.89980973   -469.90023 
    7800    472.05813   -131.87719   -122.18762    -125.0193    303.84376    2.2822862  -0.93588426   -19.474366   -233.34831  -0.86623855   -19.332901    2.3816574  -0.91568972    -8.544668   -233.30841  -0.88291246   -9.3161533    198.03866  -0.83806072   -19.381858  -0.89345376  -0.89946058   -469.89978 
    7900    472.05813    -153.1729   -132.91551   -118.52185    303.78953    2.3087977  -0.93863826   -19.506963   -233.37871   -0.8632601   -19.328195      2.39881  -0.92124341   -8.5980765   -233.35241  -0.86488734   -9.3342247    198.04918  -0.84532663   -19.396014  -0.89275951  -0.89911143   -469.89934 
    8000    472.05813    -142.0945   -155.83412   -123.40756    304.18195    2.2913243  -0.93245772   -19.508654   -233.38059  -0.85791779   -19.332911    2.3757015  -0.92104747   -8.6269623   -233.36421  -0.86994951   -9.3380124    198.03382  -0.83417675   -19.410183  -0.89206526  -0.89876228    -469.8989 
    8100    472.05813   -112.71354   -111.95612    -95.17803    304.04207    2.2676357  -0.91649841   -19.520614   -233.40687  -0.87986086   -19.330143    2.3558008  -0.91131034   -8.6384738   -233.40939  -0.86772187   -9.3310122    198.04075  -0.83333669   -19.410428  -0.89137102  -0.89841313   -469.89845 
    8200    472.05813    -103.7328   -91.143242   -80.836134    303.55344    2.2749383  -0.90415209   -19.535593   -233.40381  -0.84901786   -19.367038    2.3625132  -0.90893571   -8.6207812   -233.42428  -0.84038827   -9.3895516    198.03523  -0.79446254   -19.415318  -0.89067677  -0.89806398   -469.89801 
    8300    472.05813   -117.62184   -95.249124   -118.09977    303.56352    2.2597203  -0.88199915   -19.561429   -233.41516  -0.87311665   -19.344157    2.3475634  -0.91164534   -8.6151775   -233.47338  -0.87043291   -9.3700448    198.03062  -0.79779331   -19.421428  -0.88998252  -0.89771483   -469.89756 
    8400    472.05813   -98.543675   -92.965359    -73.81623    303.77965    2.2838451  -0.85429136    -19.60154   -233.40741  -0.86648059    -19.36096     2.369465  -0.87318432   -8.6899838   -233.47015  -0.82580702   -9.3737929    198.00344  -0.79266102   -19.428156  -0.88928827  -0.89736568   -469.89712 
    8500    472.05813   -100.00565   -89.546848    -95.39224    304.00398    2.3124514  -0.84429075   -19.606751   -233.41396  -0.85223004   -19.368077    2.3860633  -0.84878794   -8.7044483   -233.45923  -0.85090805   -9.3776907    197.98433  -0.80678953   -19.428749  -0.88859403  -0.89701653   -469.89667 
    8600    472.05813   -90.771386   -76.013716   -63.012844    303.91306     2.313912  -0.85064381   -19.620693   -233.37864  -0.83842882   -19.385475    2.3723014  -0.87188638   -8.7370174   -233.41817  -0.84828761   -9.4035015     197.9754  -0.78399556   -19.413824  -0.88789978  -0.89666738   -469.89623 
    8700    472.05813   -90.132024   -75.307059   -63.197359    303.91574    2.3239524   -0.8431524   -19.625996   -233.38206  -0.81991514   -19.393775    2.3832059  -0.84848582   -8.7588748   -233.39945  -0.84998228   -9.3762076    197.98334  -0.79825457   -19.421197  -0.88720553  -0.89631823   -469.89579 
    8800    472.05813   -63.482901   -53.656934   -42.170672    303.62201    2.3173247  -0.82231106   -19.635424   -233.40347  -0.80355139   -19.410707    2.3986152  -0.82239694   -8.7610716   -233.39509  -0.82160209   -9.3798753    197.96493  -0.83432845    -19.41659  -0.88651129  -0.89596908   -469.89534 
    8900    472.05813   -74.636531   -54.610685   -22.641901    303.71343    2.3151327  -0.82858642   -19.656114    -233.3853  -0.80705612   -19.426152    2.3873792  -0.80661088   -8.7648387   -233.36626  -0.80908016   -9.4072176    197.96663  -0.83559321   -19.447594  -0.88581704  -0.89561993    -469.8949 
    9000    472.05813   -88.543436   -69.014714    -21.10432    303.83448    2.3090398  -0.82376194   -19.652824   -233.35184  -0.80442307    -19.43896    2.3606098  -0.78373332   -8.7689045   -233.30228  -0.78665797   -9.4132523    197.97522   -0.8483054    -19.46871  -0.88512279  -0.89527078   -469.89445 
    9100    472.05813   -31.458889   -23.926104   -22.980409    303.65205    2.3177049  -0.82247356   -19.670196   -233.34749  -0.81238617    -19.45264    2.3776455  -0.80949419   -8.7756779   -233.29781  -0.80288648    -9.439476    197.98195  -0.85368834   -19.475524  -0.88442854  -0.89492163   -469.89401 
    9200    472.05813   -19.126159   -31.516225    30.468619    303.61147     2.301877  -0.82074855   -19.654074   -233.33612  -0.80928143   -19.474887    2.3420925  -0.81827812   -8.7457997   -233.31067  -0.79712247   -9.5025819     198.0089  -0.83656015   -19.490012   -0.8837343  -0.89457248   -469.89356 
    9300    472.05813   -44.578925   -42.322438    1.1860028     304.0293    2.3016651  -0.85054349   -19.633227   -233.31799  -0.82158979   -19.478106     2.367599  -0.84210795   -8.7120063   -233.29229  -0.80951198   -9.5153294    198.03732  -0.83486418   -19.489978  -0.88304005  -0.89422333   -469.89312 
    9400    472.05813   -40.793901   -26.453759   -3.1820362    303.67956    2.3089081  -0.84826898   -19.654076   -233.30859   -0.8549648   -19.518345    2.3703609  -0.86298936   -8.7396539   -233.28089  -0.82119551   -9.5285564    198.06823  -0.81499993   -19.510127   -0.8823458  -0.89387418   -469.89268 
    9500    472.05813   -44.366198   -7.2783714    18.397328    303.65831    2.2993697  -0.84493073    -19.65329   -233.30745  -0.88046489   -19.538367    2.3824443  -0.84304489   -8.7563055   -233.28988  -0.85375722   -9.5313413    198.10817  -0.81925156   -19.549146  -0.88165155  -0.89352503   -469.89223 
    9600    472.05813   -19.976062    26.151579    22.670484    303.66356    2.2899046  -0.83531337   -19.648867     -233.322  -0.91341644   -19.533334     2.363173  -0.84422934   -8.7490832   -233.33143  -0.92044622   -9.5371753    198.12698   -0.8473118   -19.573836  -0.88095731  -0.89317588   -469.89179 
    9700    472.05813   -11.560724    6.0393214    60.584663    303.72111    2.2953202  -0.83180471   -19.679254   -233.32876  -0.92553918   -19.556273    2.3470285  -0.83469343   -8.7710536    -233.3325  -0.95893907    -9.560801    198.12144  -0.83986696   -19.565416  -0.88026306  -0.89282673   -469.89134 
    9800    472.05813     1.525106   -12.716125    45.454514    303.84601    2.2823625  -0.81972286   -19.683496   -233.31541  -0.95391742   -19.546358    2.3262357  -0.79354217   -8.7855751   -233.31699   -1.0184139   -9.5564005    198.11303  -0.82058777   -19.573586  -0.87956881  -0.89247758    -469.8909 
    9900    472.05813    11.348399    21.729005    71.018345    303.69249     2.296527  -0.80692717   -19.708956   -233.31188  -0.95362661   -19.559895    2.3499062  -0.80586348   -8.8293751   -233.30679  -0.96734112   -9.5436412    198.11263  -0.81837519   -19.599847  -0.87887456  -0.89212843   -469.89045 
   10000    472.05813    10.738813    5.1459825    52.770609    304.09692    2.2808055  -0.83345448   -19.723437   -233.30317  -0.94590106   -19.553554    2.3304223  -0.85369077   -8.8410088   -233.28606  -0.96285935   -9.5341374    198.14919  -0.84256692   -19.570212  -0.87818032  -0.89177928   -469.89001 
   10100    472.05813    26.843361    42.331694    74.328913    304.10709    2.2882094  -0.79166148   -19.730533   -233.29019  -0.93905683   -19.576117    2.3514171  -0.80318764   -8.8607699   -233.28102  -0.93168069   -9.5870628     198.1573   -0.8426155   -19.543491  -0.87748607  -0.89143013   -469.88957 
   10200    472.05813    8.1781041    43.403383    82.167703    304.17022    2.3049302  -0.77668878   -19.721639   -233.30291  -0.93291599   -19.589219    2.3794311  -0.78644864   -8.8587208   -233.28923  -0.91660386   -9.5987924    198.13931  -0.84925953   -19.585122  -0.87679182  -0.89108098   -469.88912 
   10300    472.05813    28.223092     20.12627    122.24726    304.03695    2.2774379   -0.7621047   -19.683584   -233.27115  -0.92492206   -19.595013    2.3468125   -0.7666954   -8.8097146   -233.24848  -0.92846679   -9.6106629    198.13775   -0.8581243   -19.603284  -0.87609758  -0.89073183   -469.88868 
   10400    472.05813    8.1021894      35.7037    95.373776    303.82636    2.2644298  -0.79844512   -19.687643   -233.28242  -0.93024229   -19.603093    2.3597588  -0.80368706   -8.8321379   -233.24921  -0.91886851   -9.6019928    198.12719  -0.87828765   -19.604577  -0.87540333  -0.89038268   -469.88823 
   10500    472.05813   -5.8752746    19.352986    71.626139    304.07636    2.2476691  -0.81688009   -19.666614    -233.2567  -0.92370184   -19.603226    2.3438956   -0.8082381   -8.7795779   -233.25202  -0.90673124   -9.6049622    198.13612  -0.89414024   -19.589718  -0.87470908  -0.89003353   -469.88779 
   10600    472.05813    11.419045    26.547018     76.20009    303.96569    2.2340732  -0.79555226   -19.670622   -233.26437   -0.9212995   -19.624907    2.3289467  -0.78126582   -8.7668414   -233.27191  -0.91371143     -9.62812    198.11717  -0.89050268   -19.571502  -0.87401483  -0.88968438   -469.88734 
   10700    472.05813    21.843578    44.309151     87.74102    303.83694    2.2528034  -0.80221672   -19.661681   -233.28892  -0.86947973   -19.609142    2.3453409  -0.79024943   -8.7531602   -233.29278  -0.86615191   -9.6134439    198.11796  -0.89222686   -19.565681  -0.87332059  -0.88933522    -469.8869 
   10800    472.05813    23.330153     35.77755    83.602159    303.99649    2.2504262   -0.8366022   -19.662069   -233.29958  -0.84877707   -19.563252    2.3342736  -0.82283895   -8.7489057   -233.30088  -0.83577208   -9.5574533    198.13804   -0.8734432   -19.570825  -0.87262634  -0.88898607   -469.88645 
   10900    472.05813     10.65151    18.668129     82.86133    303.92533    2.2716887  -0.84529185   -19.633647   -233.29674  -0.85938099   -19.518077     2.362175  -0.83271554   -8.7386923   -233.30026   -0.8645925   -9.4816903    198.12842   -0.8485601   -19.555933  -0.87193209  -0.88863692   -469.88601 
   11000    472.05813    39.866309    34.561811     111.5063    303.74095    2.2590359  -0.82578501   -19.663438   -233.31019   -0.8586208   -19.530691    2.3492063  -0.82067763   -8.7510917   -233.32738  -0.86609103   -9.4825088    198.13384  -0.83034561   -19.542977  -0.87123784  -0.88828777   -469.88557 
   11100    472.05813    50.081142    68.030781    119.90473    303.76794    2.2502097  -0.83343243   -19.670839   -233.30007  -0.86937617   -19.548169    2.3154042    -0.858208   -8.7380861   -233.33394  -0.85153458   -9.5284654    198.12405  -0.84020566    -19.53212   -0.8705436  -0.88793862   -469.88512 
   11200    472.05813    44.896744    57.747227    140.88704    303.88755    2.2588574  -0.83617026   -19.657437   -233.32098  -0.86525162   -19.533689    2.3490865  -0.84743742   -8.7340549   -233.35281  -0.86729683   -9.5288614    198.14277  -0.85703244   -19.520674  -0.86984935  -0.88758947   -469.88468 
   11300    472.05813     53.82617    84.540011    137.11059    303.81343    2.2539453  -0.84155095   -19.640175   -233.32005  -0.84341504   -19.507642     2.338451  -0.85559049   -8.7575913   -233.35624  -0.84904792   -9.5103003    198.15193  -0.84383787   -19.527438   -0.8691551  -0.88724032   -469.88423 
   11400    472.05813     38.39475    60.114838     152.1527    303.76885    2.2502053  -0.83187725   -19.631815   -233.31788  -0.82355353    -19.50636    2.3414139  -0.84908036   -8.7508776   -233.34122  -0.85092691   -9.5106889    198.14133  -0.85506265   -19.552649  -0.86846086  -0.88689117   -469.88379 
   11500    472.05813    67.656958    47.495702    128.23012    304.19271    2.2632552  -0.83823422   -19.662042   -233.31135  -0.80980504   -19.506647    2.3554897  -0.85867548   -8.7702287    -233.3287  -0.82331905    -9.526398    198.14757  -0.83843182   -19.561934  -0.86776661  -0.88654202   -469.88334 
   11600    472.05813    85.115905    84.325705    170.08865    303.95235    2.2802441  -0.82123516   -19.684654   -233.26846  -0.79915226   -19.502708    2.3519639  -0.83753694    -8.796433   -233.28361  -0.79840886   -9.5218627    198.14918  -0.82679482    -19.55822  -0.86707236  -0.88619287    -469.8829 
   11700    472.05813     95.79895    99.043361    209.07353    304.06969    2.3013177  -0.80781228   -19.684824   -233.24461  -0.82816414   -19.491464    2.3731284  -0.80027124   -8.8100711   -233.23994  -0.81214428   -9.5143441    198.12245  -0.83543047   -19.550268  -0.86637811  -0.88584372   -469.88246 
   11800    472.05813    142.14931    127.43677    219.79385    303.65633    2.2798258  -0.85490041   -19.666243   -233.23109   -0.8199584   -19.457774    2.3739403  -0.81124639   -8.8072418   -233.22195  -0.81178872    -9.460575    198.13545   -0.8430137   -19.541642  -0.86568387  -0.88549457   -469.88201 
   11900    472.05813     110.6145    128.47619    236.23363    304.27848    2.2757482  -0.89107783   -19.671431   -233.23106  -0.81222553   -19.427537     2.351612  -0.87129464   -8.8069899   -233.22289  -0.79566804   -9.4204975    198.11981  -0.84286747   -19.552803  -0.86498962  -0.88514542   -469.88157 
   12000    472.05813    158.20746    163.57066    235.62844    303.49473    2.2771089  -0.83975841   -19.692722   -233.21804  -0.80991642   -19.401041    2.3600581  -0.83896596   -8.8312576   -233.20693  -0.80415863   -9.3617662    198.12708  -0.83230141   -19.556112  -0.86429537  -0.88479627   -469.88112 
   12100    472.05813    143.39293    142.94797    219.71948    303.83549     2.269941  -0.83283747   -19.714584   -233.19992  -0.77685916   -19.413351    2.3486391  -0.83486004   -8.8548269   -233.20649  -0.79848753   -9.3705937    198.13211   -0.8109075   -19.539075  -0.86360112  -0.88444712   -469.88068 
   12200    472.05813    170.78517    161.49697    225.31511    304.04224    2.2888805  -0.88012097   -19.696738   -233.20746  -0.76823138    -19.42355    2.3839306  -0.88784739   -8.8340847   -233.22392  -0.77311959   -9.3841076    198.12934  -0.80649317   -19.532809  -0.86290688  -0.88409797   -469.88023 
   12300    472.05813    175.38764    172.82588    294.47555    303.98126    2.2785923  -0.90705259   -19.692009   -233.19876  -0.78313158   -19.378259    2.3682404  -0.88808553   -8.8410905   -233.22395  -0.78744377   -9.3551168    198.14449  -0.80432477   -19.540937  -0.86221263  -0.88374882   -469.87979 
   12400    472.05813    186.58362     199.9726    316.19408    303.93632    2.2758263  -0.92776129   -19.716207   -233.20664   -0.7652752   -19.370932    2.3773775   -0.9108653   -8.8481426   -233.22377  -0.76228962   -9.3525692    198.14269  -0.82409477   -19.540518  -0.86151838  -0.88339967   -469.87935 
   12500    472.05813    203.26901    226.93065    350.53965    303.74584    2.2864333  -0.95050132   -19.728986   -233.20515  -0.78025772   -19.409746    2.3854083  -0.96729329   -8.8662042   -233.21767  -0.77395376   -9.4047455    198.15717  -0.82471208   -19.536802  -0.86082413  -0.88305052    -469.8789 
   12600    472.05813    252.13089    235.41823     386.0934    304.01758     2.295666  -0.92584313   -19.726653   -233.20508  -0.77493034   -19.414698    2.3865318  -0.94666487   -8.8795565   -233.22377  -0.74954534   -9.4251341    198.16519  -0.82788603   -19.538493  -0.86012989  -0.88270137   -469.87846 
   12700    472.05813    228.99471    272.74597    361.41677    304.18792    2.3109535  -0.92029106   -19.709638   -233.20264  -0.79309336   -19.424868     2.403873  -0.95739428   -8.8640112   -233.22033  -0.76581199   -9.4520999    198.17984  -0.82241244   -19.522531  -0.85943564  -0.88235222   -469.87801 
   12800    472.05813    236.50325    255.47778    366.78433    304.18082     2.311594     -0.90712   -19.726746   -233.21729    -0.806922   -19.425009     2.407226  -0.92180522   -8.8510177   -233.20958  -0.78929126   -9.4755008    198.18262  -0.82211455   -19.537047  -0.85874139  -0.88200307   -469.87757 
   12900    472.05813    237.26069     258.9648    389.34139    303.79321    2.3320526  -0.89738952   -19.733701   -233.22376  -0.83504091   -19.406415    2.4365926  -0.90061201   -8.8706525   -233.19379  -0.81425686   -9.4430391    198.16932  -0.81246865    -19.54746  -0.85804715  -0.88165392   -469.87712 
   13000    472.05813    267.82758     247.9191    378.32266    303.88491    2.3304432   -0.9237055   -19.753432   -233.22509  -0.80828246     -19.4189    2.4019157  -0.93809681    -8.888698   -233.17688  -0.82788819   -9.4470591    198.15682  -0.82857183   -19.540994   -0.8573529  -0.88130477   -469.87668 
   13100    472.05813    248.12017    257.40458     379.9105    303.93651    2.3387632  -0.94363193   -19.770391   -233.21434  -0.82114217   -19.387701    2.4216173  -0.96119033   -8.8878713   -233.18725  -0.83911751   -9.4056007    198.16808  -0.81315536   -19.511977  -0.85665865  -0.88095562   -469.87624 
   13200    472.05813    224.87636    236.50464    354.72201    303.92188    2.3457857  -0.96406661   -19.793488   -233.19858  -0.82501869   -19.401628    2.4132973  -0.96465083   -8.9114584   -233.19287  -0.86304654   -9.4188813    198.16399  -0.82569824   -19.472226   -0.8559644  -0.88060647   -469.87579 
   13300    472.05813    218.02178    242.24088    373.39512    303.95686    2.3363612  -0.98944604   -19.787087   -233.19813  -0.82933471   -19.396822    2.4017424  -0.98366812   -8.9133987   -233.20758  -0.84494176   -9.3862229    198.16518  -0.81943539   -19.455622  -0.85527016  -0.88025732   -469.87535 
   13400    472.05813    224.18808    210.94305    357.57729    304.20775    2.3250434   -1.0103771    -19.77542   -233.20443  -0.82275931    -19.39778    2.4181306   -0.9923583   -8.9388378   -233.19289  -0.82258688   -9.3892391    198.15808  -0.83963107   -19.432736  -0.85457591  -0.87990817    -469.8749 
   13500    472.05813    252.91154    250.36092    359.61487    303.71457    2.3209003   -0.9985575   -19.783952   -233.22507  -0.85179577   -19.406538    2.4268584   -1.0223306   -8.9077965   -233.21543  -0.84120328   -9.4042792    198.15208  -0.83840255   -19.436497  -0.85388166  -0.87955902   -469.87446 
   13600    472.05813      202.198     215.6264    359.11086    303.95285    2.3169874   -1.0069901   -19.783993   -233.19986  -0.84431475   -19.411485     2.453525   -1.0381129   -8.9063108   -233.17807  -0.85175736   -9.4190708     198.1446  -0.84852892   -19.434921  -0.85318741  -0.87920987   -469.87401 
   13700    472.05813    224.00514     216.3632    389.09482    303.88436    2.3293008   -1.0113756    -19.79162   -233.22068  -0.82333362   -19.445513    2.4479576   -1.0486437   -8.9197625   -233.22359  -0.82665981   -9.4426432      198.147  -0.85071821   -19.431631  -0.85249317  -0.87886072   -469.87357 
   13800    472.05813    230.40003    241.25759    348.26574    303.77882    2.3221268   -1.0245384   -19.810285   -233.21007  -0.82572592   -19.429017    2.4207992   -1.0507887   -8.9533643    -233.2207  -0.81770172   -9.4273598    198.14092  -0.85244861   -19.434913  -0.85179892  -0.87851157   -469.87313 
   13900    472.05813    224.06175    229.71196    340.70616    303.78002    2.3170455   -1.0339798   -19.813543   -233.21843  -0.82359495   -19.451772    2.3874867   -1.0554139   -8.9209244   -233.21427  -0.81911781   -9.4663766    198.15131  -0.87467542   -19.451841  -0.85110467  -0.87816242   -469.87268 
   14000    472.05813    246.07972    255.38052    358.76765    303.75564    2.3080767   -1.0018207   -19.815308   -233.21976  -0.80902654   -19.431246    2.3625222   -1.0270997   -8.9173976   -233.21265  -0.78469445   -9.4418111    198.12115  -0.90201052   -19.484753  -0.85041043  -0.87781327   -469.87224 
   14100    472.05813    201.94523    255.75839    327.24089    303.98029    2.2956452   -1.0174131   -19.842418    -233.2379  -0.82584394   -19.415128    2.3433368   -1.0152359   -8.9350263   -233.24613  -0.81160441   -9.4102127    198.12065  -0.89975104    -19.50031  -0.84971618  -0.87746412   -469.87179 
   14200    472.05813    213.79907    235.83899    336.45991    304.01968    2.2987956   -1.0104171   -19.833482   -233.24424   -0.8318809   -19.406324    2.3311004  -0.98221364   -8.9246554   -233.22676  -0.82691134   -9.4109518    198.10247  -0.92586106   -19.504179  -0.84902193  -0.87711497   -469.87135 
   14300    472.05813    214.99377    242.95019    389.94771    304.20396    2.3083563   -0.9895267   -19.844021   -233.24161  -0.80565213   -19.433475    2.3479032  -0.95679461   -8.9825599   -233.24098   -0.7943006    -9.440687    198.08395  -0.93259108   -19.491405  -0.84832768  -0.87676582    -469.8709 
   14400    472.05813    269.07511    286.23523    399.90825     304.1848    2.3257614  -0.98675992   -19.825997   -233.25227  -0.81637894   -19.445688    2.3898138  -0.96761405   -8.9586428   -233.26118  -0.80293353   -9.4382558    198.05992   -0.9191425   -19.501154  -0.84763344  -0.87641667   -469.87046 
   14500    472.05813    270.83185    293.62373    428.90455    303.82594    2.3382739  -0.99714007   -19.815626   -233.26436  -0.83842715   -19.446603    2.4179806   -1.0246288   -8.9521432   -233.27097  -0.82244252   -9.4435658    198.08499  -0.92341598    -19.50622  -0.84693919  -0.87606752   -469.87001 
   14600    472.05813    280.62008    321.44459    409.21563    303.83267    2.3108733  -0.96636536   -19.821791   -233.24894   -0.8669127   -19.462756     2.407103   -0.9832065   -8.9268343   -233.24692  -0.86979233   -9.4778648    198.09311  -0.88786537   -19.494474  -0.84624494  -0.87571837   -469.86957 
   14700    472.05813    298.23634    277.48349    410.55293    303.93747    2.3174409  -0.96148668   -19.824836    -233.2537  -0.88154733    -19.47504    2.4193005  -0.96079026   -8.9224818   -233.26578  -0.90760078    -9.497173    198.07621  -0.87724361    -19.52332  -0.84555069  -0.87536922   -469.86913 
   14800    472.05813    274.07596    293.50045    399.63814    303.88334    2.3455455  -0.92503023   -19.836954   -233.27003  -0.88666005   -19.462705    2.4624526  -0.92116455   -8.9369782   -233.29529  -0.91513338    -9.469907    198.08367  -0.88058223     -19.5208  -0.84485645  -0.87502007   -469.86868 
   14900    472.05813    257.33598    253.46741    400.93129    303.97982    2.3559059  -0.91700338   -19.864646   -233.28014  -0.89723503   -19.497083    2.4649023  -0.90332104   -8.9681044    -233.3177  -0.92661612   -9.5218535    198.06977   -0.8731495   -19.523584   -0.8441622  -0.87467092   -469.86824 
   15000    472.05813    251.72527    268.22562    389.56341     304.1137    2.3700732   -0.9007021   -19.887713   -233.25957  -0.91988746   -19.514305    2.4740332  -0.88321402   -8.9809128   -233.28543  -0.94477685    -9.541282    198.08268   -0.8905125   -19.515349  -0.84346795  -0.87432177   -469.86779 
   15100    472.05813    267.85965    254.31407    419.03611    303.63544    2.3605627  -0.89764407    -19.92433   -233.27038  -0.90690878   -19.508026    2.4327811  -0.90912137    -9.041767   -233.28899  -0.90646055   -9.5508577    198.07738  -0.90147199   -19.533234  -0.84277371  -0.87397262   -469.86735 
   15200    472.05813    216.29845    241.71004    373.21787    304.10999    2.3489233  -0.91257315   -19.925291   -233.28398  -0.90900264   -19.515437    2.4225517  -0.91215571   -9.0415481   -233.28153  -0.92084132   -9.5300174     198.0672  -0.91812054   -19.523503  -0.84207946  -0.87362347    -469.8669 
   15300    472.05813    236.72597    235.79438    386.97699    303.85443    2.3476023  -0.90956141   -19.906147   -233.30903   -0.9170956   -19.500541    2.4237441  -0.90643038   -9.0509993   -233.30737  -0.90922094   -9.4957682    198.07125  -0.93762441   -19.512472  -0.84138521  -0.87327432   -469.86646 
   15400    472.05813    253.34774     236.0665    351.96536     303.8087    2.3622861  -0.92259904   -19.901045    -233.3088  -0.90688614   -19.506103    2.4382408  -0.89825617   -9.0585067   -233.28321   -0.8772093   -9.4947873    198.08408  -0.93365139   -19.496221  -0.84069096  -0.87292517   -469.86602 
   15500    472.05813    179.07345    213.53576    323.30473     303.9471    2.3495919  -0.90353774   -19.923968    -233.3226   -0.8972947    -19.50175    2.4179841  -0.87890703   -9.0637408   -233.29572  -0.86121049   -9.5142618    198.09104  -0.91287079   -19.489738  -0.83999672  -0.87257602   -469.86557 
   15600    472.05813    176.23143    207.67067    327.40121    303.91965    2.3262421  -0.87971788   -19.949491   -233.29389  -0.90005038   -19.493228    2.3991585  -0.88273558   -9.0558441   -233.28094  -0.87990987    -9.489957    198.10325  -0.91489016   -19.498179  -0.83930247  -0.87222687   -469.86513 
   15700    472.05813    150.84644    179.79057    256.82327    304.39025    2.3584807  -0.88873459   -19.973982   -233.30034  -0.92084573   -19.505353    2.4509625  -0.90440632   -9.0727142   -233.29108  -0.91241951   -9.4994552    198.10375  -0.93337998   -19.509214  -0.83860822  -0.87187771   -469.86468 
   15800    472.05813    176.19797    190.32139    292.14035    303.84908    2.3577546  -0.91708994   -19.970149   -233.30512   -0.9174026   -19.497415    2.4487079  -0.93697626   -9.0573686   -233.31336  -0.91876643   -9.4978159    198.09251  -0.91358846   -19.525522  -0.83791397  -0.87152856   -469.86424 
   15900    472.05813    161.15988    187.09194    292.55655    304.04694    2.3723166  -0.93420703   -19.966934   -233.28104  -0.94640872   -19.512663    2.4523294  -0.95199588   -9.0628037    -233.2814  -0.94670498   -9.5318292    198.08168  -0.90489005   -19.534686  -0.83721973  -0.87117941   -469.86379 
   16000    472.05813    191.55497    186.69968    318.27708    303.97507    2.3828406  -0.92219925   -19.969442   -233.28262  -0.96553767   -19.513117    2.4623838  -0.95240303    -9.096767   -233.27885  -0.97844906   -9.5340726    198.09763  -0.92715336   -19.519285  -0.83652548  -0.87083026   -469.86335 
   16100    472.05813    188.37208    191.16197    315.01203    304.20764    2.3855396  -0.93064978   -19.947116    -233.2815  -0.97844195   -19.473255     2.470596  -0.95592759    -9.091865   -233.28906   -1.0022057   -9.4839406    198.12213  -0.91270877   -19.490687  -0.83583123  -0.87048111   -469.86291 
   16200    472.05813    165.34805      196.426    305.28055    304.01042    2.4074825  -0.92214962   -19.957763   -233.29103  -0.96123534   -19.450179    2.4869238   -0.9403878   -9.1186498   -233.30635  -0.97671741   -9.4646571    198.10261  -0.90415421   -19.471378  -0.83513698  -0.87013196   -469.86246 
   16300    472.05813    185.75148    173.39458    323.50336    303.97557    2.4231089  -0.89360653   -19.928271   -233.28265  -0.96740469   -19.423696    2.4873085  -0.90171051   -9.0882798   -233.29838  -0.98484438   -9.4421479    198.08483  -0.89246674   -19.480275  -0.83444274  -0.86978281   -469.86202 
   16400    472.05813    184.89986    172.97931    323.17217    303.89015     2.431322  -0.87653408   -19.918396   -233.27001  -0.99881397    -19.42465    2.5000192  -0.87320179    -9.060395   -233.28773   -1.0232719   -9.4443785    198.08397  -0.89414807   -19.485917  -0.83374849  -0.86943366   -469.86157 
   16500    472.05813    143.02423    174.22211    305.88684    303.92863    2.4324912  -0.89191548    -19.95405   -233.27202  -0.98651813   -19.427106    2.5126097  -0.88526809   -9.0901541   -233.29077   -1.0011431    -9.438302    198.09772   -0.8735223   -19.487652  -0.83305424  -0.86908451   -469.86113 
   16600    472.05813    162.31177    165.86519    293.24517    304.09475    2.4234542  -0.88458022   -19.939322    -233.2619  -0.96504178   -19.408209    2.4843934  -0.87179594   -9.0519386   -233.27637  -0.97289533   -9.4173888    198.09454  -0.86883857   -19.498729     -0.83236  -0.86873536   -469.86068 
   16700    472.05813     168.2578    187.50056    281.98307    304.02258    2.4180009  -0.87150842    -19.92247   -233.26183  -0.95270633   -19.377967    2.4854337  -0.86426785   -9.0126105   -233.28464  -0.95382928   -9.3729358    198.07615  -0.88700143   -19.500136  -0.83166575  -0.86838621   -469.86024 
   16800    472.05813    170.82156    160.67386    289.14686    304.20711    2.3809326  -0.87976321   -19.914028   -233.26175  -0.95372716   -19.344041    2.4456812  -0.87283207   -9.0228895   -233.27978  -0.93134809   -9.3374923    198.05429  -0.90174403    -19.51724   -0.8309715  -0.86803706    -469.8598 
   16900    472.05813    114.78813    146.20898    246.66181    304.46322    2.3742248  -0.89381911   -19.906068   -233.24504  -0.92364682   -19.319209    2.4224254  -0.88879411    -9.004577   -233.25828  -0.90881012   -9.2987558    198.06128  -0.90875149   -19.499469  -0.83027725  -0.86768791   -469.85935 
   17000    472.05813     142.2754    143.91158    259.80902    303.93626    2.3744499  -0.90134408    -19.88853   -233.24306  -0.92981334   -19.321145    2.4473966  -0.87659741   -8.9768547   -233.26264  -0.92329274   -9.3211323    198.03998  -0.91431711   -19.497615  -0.82958301  -0.86733876   -469.85891 
   17100    472.05813    113.35116    113.27503    229.56879    303.97326    2.3571832  -0.93361641    -19.86264   -233.25259  -0.91983268   -19.345317    2.4293585  -0.92852122    -8.969349   -233.25514  -0.91540333   -9.3541895     198.0598  -0.92441695   -19.477488  -0.82888876  -0.86698961   -469.85846 
   17200    472.05813    101.65956    107.61007    166.43828    303.93548    2.3546103  -0.92114754   -19.838685   -233.24938  -0.91587009   -19.329539    2.4159905  -0.93762083   -8.9779307   -233.24662  -0.91870302   -9.3346178    198.05814  -0.92148793   -19.456139  -0.82819451  -0.86664046   -469.85802 
   17300    472.05813    112.49975    122.98434    193.00856     303.6087    2.3293017  -0.89202639    -19.84315   -233.25282   -0.9206126    -19.33775    2.3722511  -0.93207132   -8.9635536   -233.22403  -0.91600976   -9.3464701    198.05847  -0.92077438   -19.426452  -0.82750026  -0.86629131   -469.85757 
   17400    472.05813    131.26883    132.69601    210.32166    303.85905    2.3453403  -0.89361493   -19.843853   -233.25605  -0.91775547   -19.348402    2.4033301  -0.92737538   -8.9593873   -233.23449  -0.92401669   -9.3739228    198.05048  -0.90442656   -19.403134  -0.82680602  -0.86594216   -469.85713 
   17500    472.05813    93.126863    112.74744    233.63078    304.14535    2.3401114  -0.90339238   -19.808786    -233.2527  -0.93396323   -19.353154     2.403122  -0.90223115   -8.9430361   -233.23886  -0.95493983   -9.3780411    198.05763  -0.90438784   -19.370267  -0.82611177  -0.86559301   -469.85669 
   17600    472.05813    111.48785    101.75582    209.02507    304.13852    2.3198785  -0.90157786   -19.814825   -233.22636  -0.93865652   -19.364576    2.3747979  -0.89636676   -8.9578143   -233.21786  -0.94990942   -9.3868153      198.056  -0.88745622   -19.372492  -0.82541752  -0.86524386   -469.85624 
   17700    472.05813    100.08683    114.57728    228.52101    303.69064    2.3121331  -0.90917695   -19.810427   -233.23814  -0.93071234   -19.359318    2.3446758  -0.89700713   -8.9649159   -233.22324  -0.92320875   -9.3726606    198.06067  -0.87875153    -19.33038  -0.82472328  -0.86489471    -469.8558 
   17800    472.05813    117.65688    109.30164    205.25679    304.03218    2.3118813  -0.90451798    -19.79016   -233.25469  -0.95077343    -19.35685    2.3560519  -0.88180303    -8.949421   -233.23879   -0.9427427   -9.3991421    198.04991  -0.89514173   -19.323439  -0.82402903  -0.86454556   -469.85535 
   17900    472.05813    125.78941    110.28908    218.70552    303.75493    2.3264412  -0.91147387    -19.76633   -233.25867  -0.94770242   -19.386441    2.3612779  -0.89983789   -8.9209779   -233.27268  -0.93483349   -9.4313117    198.08378   -0.8999091   -19.312552  -0.82333478  -0.86419641   -469.85491 
   18000    472.05813    130.52499    135.04253    210.41272    303.87767    2.3394421  -0.92671995   -19.755214   -233.24689  -0.97125527   -19.355279    2.3856862  -0.90578648   -8.8768614   -233.23873  -0.95820833   -9.4313598    198.09672  -0.90290368   -19.315949  -0.82264053  -0.86384726   -469.85446 
   18100    472.05813    87.069213    153.04835    214.57228    304.00483    2.3498442  -0.91242962    -19.76362   -233.25904  -0.96887401   -19.315379    2.4436614  -0.91292417   -8.8946217   -233.25656  -0.97080871   -9.3682058     198.0914  -0.87214567   -19.310395  -0.82194629  -0.86349811   -469.85402 
   18200    472.05813    123.68211    122.52107    227.68145    303.63356    2.3552277  -0.88669697   -19.749531   -233.27782  -0.94484449   -19.294573     2.460596  -0.87337689   -8.8912179   -233.26889  -0.95031907   -9.3439324    198.07667  -0.87213068   -19.300521  -0.82125204  -0.86314896   -469.85358 
   18300    472.05813    82.897133    101.92182    194.78853    304.18261    2.3696462  -0.91950661   -19.695818    -233.3037  -0.93862681    -19.30464    2.4878988  -0.93019234   -8.8304676   -233.29999  -0.94408064    -9.324932    198.09316  -0.86387122   -19.310811  -0.82055779  -0.86279981   -469.85313 
   18400    472.05813    95.722992    64.194365    161.02211    303.88901    2.3671291  -0.88093529   -19.681112   -233.28867  -0.90496152   -19.293396    2.4768148  -0.88875971   -8.8072712   -233.29168  -0.90633845   -9.2717575    198.10459  -0.86552456     -19.3191  -0.81986354  -0.86245066   -469.85269 
   18500    472.05813    52.079276    61.366347    135.01886    303.81353    2.3572046  -0.87946677   -19.685109   -233.28938  -0.88644596    -19.24745    2.4640875  -0.88694148    -8.821953   -233.28897  -0.89036356    -9.215192    198.10658  -0.87973089   -19.311094   -0.8191693  -0.86210151   -469.85224 
   18600    472.05813    87.110394    82.268494    163.49804    303.58174    2.3638775   -0.9172186   -19.640857   -233.28774  -0.87226564   -19.225162    2.4370207  -0.92095397   -8.7681336   -233.30178  -0.87646849   -9.1901261    198.08503  -0.87343785   -19.329845  -0.81847505  -0.86175236    -469.8518 
   18700    472.05813    51.648068    44.268624    141.83633    304.01159    2.3512775  -0.92873992   -19.651484    -233.2961  -0.87840174   -19.205533    2.4078073  -0.94635556   -8.7726423   -233.28703  -0.87658609   -9.1661111    198.06934  -0.88765557   -19.349664   -0.8177808  -0.86140321   -469.85135 
   18800    472.05813    32.498769    52.196097     110.3315    304.08236    2.3402648  -0.94563628   -19.646877   -233.27231  -0.85495858   -19.221489    2.4178559  -0.96806802   -8.7727024   -233.27929  -0.82899817   -9.1995273    198.05425  -0.90156076   -19.343458  -0.81708656  -0.86105406   -469.85091 
   18900    472.05813    70.760076    6.8890418    137.14356    303.85434    2.3383388   -0.9499624   -19.673096   -233.25631  -0.82863394   -19.199349    2.4264784  -0.95495112   -8.8137938   -233.26363  -0.81536413   -9.1815836    198.07243  -0.90557569   -19.321874  -0.81639231  -0.86070491   -469.85046 
   19000    472.05813    6.8531416    38.889767    117.15746    303.94016    2.3620088  -0.95403447   -19.705082   -233.25953  -0.81442764   -19.195747    2.4569718  -0.96133003   -8.8237415   -233.26484  -0.80111782   -9.1832846    198.08531   -0.8734118   -19.318908  -0.81569806  -0.86035576   -469.85002 
   19100    472.05813   -7.5081817    7.3127626     70.73873    304.11743    2.3632315  -0.95425065    -19.68908   -233.26295  -0.80400435   -19.205441    2.4626757  -0.97062963   -8.8040725   -233.27103  -0.79006885   -9.2109791    198.09828   -0.8728921   -19.300382  -0.81500381  -0.86000661   -469.84958 
   19200    472.05813    26.926159    19.760429    97.854128    304.09133    2.3670386  -0.97006077   -19.687822   -233.26273  -0.82619002   -19.218696    2.4721121  -0.98523671   -8.8033621    -233.2727   -0.8127914   -9.2293045    198.09837  -0.83286698   -19.274995  -0.81430957  -0.85965746   -469.84913 
   19300    472.05813    25.561696    28.373922    76.130762    303.68188    2.3840719    -0.975226    -19.68481   -233.25601  -0.84439873   -19.199754    2.4968301  -0.98058142   -8.8066495   -233.27366  -0.85768467   -9.1839147    198.10369  -0.82345678   -19.258921  -0.81361532  -0.85930831   -469.84869 
   19400    472.05813   -23.649132   -10.790556    22.302157    304.11075    2.3953989  -0.97425741   -19.675652   -233.25615  -0.82193124   -19.223359    2.5019192  -0.99191006   -8.7954435   -233.27069  -0.82780291   -9.2227842    198.10364  -0.82523161   -19.257751  -0.81292107  -0.85895916   -469.84824 
   19500    472.05813   -13.035359   -24.905973    56.382073    304.01533    2.3924408  -0.95792203     -19.6656   -233.23402  -0.81938216   -19.255173     2.502093  -0.95205471    -8.780178   -233.23945  -0.81130484   -9.2654817    198.11284   -0.8009752   -19.257439  -0.81222682  -0.85861001    -469.8478 
   19600    472.05813   -40.817814   -19.082044    57.395096    303.82017    2.3802594  -0.93281479   -19.689609   -233.24841  -0.81392715   -19.273981    2.4789852  -0.93568852   -8.8257338   -233.21078   -0.7955845   -9.2980451    198.11066  -0.76901552   -19.262721  -0.81153258  -0.85826086   -469.84735 
   19700    472.05813   -7.5219349   -20.796995    45.609422    303.88599    2.3564965  -0.90399328   -19.689442   -233.24167   -0.7960052   -19.284963    2.4455522   -0.9139724     -8.83983   -233.21666  -0.79994689   -9.2910963    198.11219  -0.78189372   -19.275365  -0.81083833  -0.85791171   -469.84691 
   19800    472.05813   -26.421003   -10.182563    37.835847    303.61223    2.3607783  -0.89545532   -19.679872     -233.269  -0.80823254   -19.271604    2.4565591  -0.92029469   -8.8402168   -233.22361  -0.84598064   -9.2630017    198.11283   -0.7830156   -19.309802  -0.81014408  -0.85756256   -469.84647 
   19900    472.05813   -35.970205   -38.055086    -11.71338    304.09363    2.3701762  -0.88291621   -19.675666   -233.27871  -0.80565614   -19.263142    2.4544944  -0.91058599   -8.8041798   -233.23006  -0.83261472   -9.2830367    198.12188  -0.81260702   -19.333506  -0.80944983  -0.85721341   -469.84602 
   20000    472.05813   -39.859966   -27.934818    1.9294441    303.59778    2.3554452   -0.8655694   -19.649766   -233.29278  -0.81681333   -19.279609    2.4200428  -0.87809035   -8.7830606   -233.25797  -0.81755737   -9.3072109    198.12101  -0.82773493   -19.339983  -0.80875559  -0.85686426   -469.84558 
   20100    472.05813   -55.911366   -47.308492   -11.333393    303.79398    2.3575078  -0.86541903   -19.660204   -233.28627  -0.81260448   -19.291914    2.4448419  -0.85801801   -8.7964628   -233.26813  -0.80367721    -9.307984    198.13871  -0.81088765   -19.312332  -0.80806134  -0.85651511   -469.84513 
   20200    472.05813   -80.289062   -48.296403   -13.952131    303.75624    2.3370537  -0.86901942   -19.669291   -233.28529  -0.81069251   -19.247145    2.4414928  -0.85580214   -8.8090045   -233.28325  -0.78648382   -9.2868756    198.12588  -0.81071687    -19.32293  -0.80736709  -0.85616596   -469.84469 
   20300    472.05813   -53.493953   -43.826429    3.6713381    303.72397    2.3225281  -0.83194022   -19.705125   -233.27898  -0.79177192   -19.251132    2.4130216  -0.81392984   -8.8408509   -233.27974  -0.79410657   -9.2512386    198.11304  -0.78122068    -19.33932  -0.80667285  -0.85581681   -469.84424 
   20400    472.05813   -70.121698   -63.407428   0.11554074    303.45509    2.3094821  -0.86091344   -19.728879   -233.26761  -0.79046079   -19.265208    2.3907356   -0.8345373   -8.8738096   -233.27229  -0.75864118   -9.2382145    198.12614  -0.79849664   -19.358338   -0.8059786  -0.85546766    -469.8438 
   20500    472.05813   -100.12165   -62.981269   -47.946159    303.81407    2.2823578  -0.83897766   -19.721447   -233.25926  -0.78527819   -19.291885     2.382467  -0.81085078   -8.8502483   -233.27259  -0.74973648    -9.275875    198.11898  -0.81453872   -19.366714  -0.80528435  -0.85511851   -469.84336 
   20600    472.05813   -91.828824   -84.283705   -62.659618    303.76208    2.2927484  -0.83592121   -19.714908   -233.27005  -0.77660426   -19.304868    2.3566554  -0.81974455   -8.8355199   -233.28594  -0.76971375   -9.2979026    198.10753  -0.82905623   -19.367483   -0.8045901  -0.85476935   -469.84291 
   20700    472.05813   -91.677668   -94.334955   -71.529151    303.92559    2.2850191  -0.82988562     -19.7156   -233.29372  -0.78495184   -19.287582    2.3630058  -0.78725359   -8.8455635    -233.3212  -0.79582761    -9.272731    198.12136  -0.82816249    -19.36209  -0.80389586   -0.8544202   -469.84247 
   20800    472.05813   -102.34218   -94.349542   -84.868099    303.79929    2.2725519  -0.81939053   -19.731859   -233.29188  -0.76597892    -19.27355    2.3335822  -0.78237633   -8.8474611   -233.30762  -0.78123026   -9.2351635    198.12871  -0.82992573   -19.363885  -0.80320161  -0.85407105   -469.84202 
   20900    472.05813   -142.44454   -109.70857   -90.683924    303.86343    2.2503908  -0.79310375   -19.719849   -233.28501  -0.78169811   -19.278288    2.2968278  -0.78884057   -8.8505909   -233.29041  -0.80867839   -9.2528161    198.11738  -0.82917046   -19.360715  -0.80250736   -0.8537219   -469.84158 
   21000    472.05813   -153.64119   -93.925582   -132.61196     303.8697    2.2464512  -0.81876564   -19.717347   -233.29285   -0.7801607   -19.286145    2.3144309  -0.84038813   -8.8659287   -233.30625  -0.79642879   -9.2750984    198.13779  -0.81917589   -19.388002  -0.80181311  -0.85337275   -469.84113 
   21100    472.05813   -145.46808   -116.88907   -136.00654     303.9016    2.2371973  -0.84072219   -19.718739   -233.30303  -0.80253507   -19.322196    2.3195958  -0.84971745   -8.8803497   -233.32875  -0.81420517   -9.3237689    198.12316  -0.81050415   -19.408458  -0.80111887   -0.8530236   -469.84069 
   21200    472.05813   -118.34864   -102.09452   -98.327688    303.72906    2.2255642  -0.84695616   -19.735432   -233.28792  -0.82485253    -19.34162    2.3210033  -0.84307643   -8.8795158   -233.31157  -0.84830425   -9.3463167    198.11253  -0.81955715   -19.424221  -0.80042462  -0.85267445   -469.84025 
   21300    472.05813   -128.55263   -123.11822   -76.291971    303.94168    2.2145174  -0.83220262   -19.736214   -233.27625  -0.81302165   -19.365674    2.2921787  -0.84592008    -8.869586   -233.27637  -0.80847189   -9.3778812    198.10586  -0.81206618   -19.409392  -0.79973037   -0.8523253    -469.8398 
   21400    472.05813   -117.36651   -97.277148   -91.131005    303.81001    2.2179848  -0.83568172   -19.704194    -233.2645  -0.80360848   -19.380756    2.3046863  -0.86368109   -8.8314343   -233.27188  -0.77186361   -9.4089324     198.1229  -0.83731844   -19.400137  -0.79903613  -0.85197615   -469.83936 
   21500    472.05813   -143.30359   -95.098242   -107.48828    303.85634    2.2091816  -0.85671223   -19.684695   -233.25268   -0.7969513   -19.394393    2.3115029  -0.88788509   -8.8050815   -233.25299  -0.78123971   -9.4165869    198.12527  -0.84459528    -19.39709  -0.79834188    -0.851627   -469.83891 
   21600    472.05813   -134.98654   -112.87647   -135.91205    304.08323    2.1946377  -0.83693997    -19.67009   -233.27261  -0.79317814   -19.395127    2.2660635  -0.86733851   -8.7990323   -233.26402  -0.79744464   -9.4172207    198.11124  -0.83592269   -19.382813  -0.79764763  -0.85127785   -469.83847 
   21700    472.05813   -148.24756   -136.77063   -139.41737    303.90853    2.1983322  -0.86385268   -19.659516   -233.25899  -0.80679654   -19.389273    2.2632124  -0.87986634   -8.7797286   -233.26318  -0.80199362   -9.3893778    198.10022  -0.82026618   -19.400015  -0.79695338   -0.8509287   -469.83802 
   21800    472.05813   -117.68124   -125.85521   -137.52331    303.65864    2.2045967  -0.86278214   -19.645323   -233.26516  -0.79026613   -19.380442      2.23956  -0.85265299   -8.7953874    -233.2561  -0.79452654   -9.3663503    198.09576  -0.83214278   -19.407257  -0.79625914  -0.85057955   -469.83758 
   21900    472.05813   -159.77266    -126.5331   -158.43164    303.78702    2.2282981  -0.87244934   -19.606312   -233.27302  -0.79418022   -19.395339    2.2749615  -0.85634671   -8.7532163   -233.29717  -0.77693651   -9.3932174    198.10183  -0.81852576   -19.423166  -0.79556489   -0.8502304   -469.83714 
   22000    472.05813   -161.09809   -160.72327   -172.75886    303.76964    2.2156298  -0.86928057   -19.593066   -233.25289  -0.80102398   -19.360273    2.2901329  -0.86489986   -8.7257273   -233.25288  -0.79313957   -9.3530344    198.10895  -0.80463623   -19.403699  -0.79487064  -0.84988125   -469.83669 
   22100    472.05813   -142.06748   -141.06969   -167.95865    303.71461    2.2133954  -0.87610852   -19.593224   -233.27609  -0.81762751   -19.367708    2.3244519  -0.86275513    -8.735265   -233.28199   -0.8114304   -9.3786654    198.12088  -0.80708773   -19.404877  -0.79417639   -0.8495321   -469.83625 
   22200    472.05813   -146.96715   -144.95988   -151.73726    303.77849    2.2307099  -0.89503961   -19.616075   -233.27848  -0.81484354   -19.366444     2.314032  -0.88124906   -8.7649009   -233.28023  -0.82421418    -9.401154    198.12236  -0.82896652   -19.405464  -0.79348215  -0.84918295    -469.8358 
   22300    472.05813   -143.20791   -153.83212   -161.70379    303.73914     2.248758  -0.86655461   -19.594127   -233.28251  -0.78618643   -19.360681    2.3293708  -0.85051508   -8.7438542   -233.28125  -0.78522195   -9.3868998    198.11759  -0.84245347   -19.403693   -0.7927879   -0.8488338   -469.83536 
   22400    472.05813   -192.81659   -152.07115   -184.46951    303.82085    2.2498648  -0.86350317   -19.582621   -233.27127  -0.78151205   -19.354084    2.3301742  -0.85532113   -8.7241795   -233.28252  -0.78221547   -9.3826561    198.10821  -0.86734903   -19.418517  -0.79209365  -0.84848465   -469.83491 
[...]
  999000    472.03557   -193.30807   -191.79321    -302.7467    303.89547    13.270659 -0.038913984   -16.556674   -221.98583  0.030607307   -16.228679    13.268121   -0.1581549   -6.3861923   -221.99179  0.026713745   -6.2176306    209.23636 -0.021720323   -15.921766    10.348648  0.033912708   -466.93875 
  999100    472.03557   -174.28443   -187.41554   -282.39145    303.68694    13.265606 -0.041348672    -16.56065   -221.99309  0.044734011   -16.239505    13.289239  -0.16321287   -6.4087611   -222.00779  0.040215977   -6.2230042      209.217 -0.013653249   -15.916361    10.349781  0.034007612   -466.93845 
  999200    472.03557   -141.36156   -182.29583   -254.96468    303.57508    13.274124 -0.060913082   -16.572252   -221.98985  0.029865965   -16.222217    13.298297  -0.17874628   -6.4127021   -221.98083  0.030679147   -6.2402156    209.22253 -0.036207839   -15.927399    10.350913  0.034102516   -466.93815 
  999300    472.03557    -176.0261   -164.20129   -238.41557    303.82826    13.253331 -0.061199499   -16.577048   -221.99574  0.030452647   -16.228272    13.271604  -0.14699591   -6.4158722   -221.96743  0.023447161   -6.2442642    209.23016 -0.005353155   -15.928918    10.352045   0.03419742   -466.93785 
  999400    472.03557   -170.71614   -179.60625   -264.82713    303.91877    13.241727 -0.072039391   -16.575669   -222.01621 0.0051736354   -16.212817    13.262917  -0.18716519   -6.4108159   -221.99074 0.0054589245   -6.2503576    209.24714 -0.012840737    -15.94492    10.353178  0.034292324   -466.93755 
  999500    472.03557   -193.23105   -164.52934   -261.71002    304.10426    13.254352 -0.082629358   -16.569466   -222.03966  0.014384597   -16.217939    13.272994  -0.21271789   -6.4224418   -222.01182  0.008615524   -6.2608605    209.23002 -0.0045434103   -15.970024     10.35431  0.034387228   -466.93725 
  999600    472.03557   -182.90059   -177.93287   -272.78035    304.31869    13.264712 -0.076633224    -16.55976   -222.07051   0.01765803   -16.228641    13.284828  -0.21865473   -6.4246102    -222.0414 0.0095734856   -6.2605076    209.22723 0.00014108305   -15.993079    10.355443  0.034482132   -466.93695 
  999700    472.03557   -173.28125   -149.36001   -270.60832    303.78867    13.272246 -0.081638905   -16.565715   -222.05316 0.0078496258   -16.219364    13.296067  -0.20889407   -6.4221574    -222.0437 -0.020016965   -6.2334095    209.24431 0.0093093914   -15.998213    10.356575  0.034577036   -466.93665 
  999800    472.03557    -179.5236   -190.16642   -281.78858    304.07116    13.232069 -0.091321772   -16.544013    -222.0455   0.01899557   -16.197384    13.248934  -0.21526805   -6.3945478   -222.04129  0.022848155   -6.2325687    209.24231  0.018440709   -16.007178    10.357707   0.03467194   -466.93635 
  999900    472.03557   -169.31512   -165.33142    -272.6862    303.77946    13.253673 -0.089978268    -16.53055   -222.05138  0.020694036   -16.192384    13.263625  -0.18048243   -6.3751569    -222.0616  0.042837795   -6.2300859    209.22205 -0.0086646207   -15.999018     10.35884  0.034766844   -466.93605 
 1000000    472.03557   -187.96024    -184.1845   -249.72175    303.95676    13.248977 -0.056097889   -16.534143    -222.0692  0.038931447   -16.182311    13.252418  -0.15124597   -6.3737364   -222.06986   0.06018064    -6.206002    209.21807 -0.006865049   -15.984249    10.359972  0.034861748   -466.93575 
 1000100    472.03557   -146.07669   -187.74526   -307.79648     303.7233    13.264443 -0.072779321   -16.549482   -222.06441  0.058400143    -16.14209    13.273581  -0.17803565   -6.3682369   -222.05429  0.063500019   -6.1452185    209.19666 -0.028866791   -16.008781    10.361104  0.034956652   -466.93545 
 1000200    472.03557   -178.78465   -165.24651   -296.65402    303.71252    13.261905 -0.083251419   -16.535355   -222.03761  0.052173843   -16.165382     13.28069  -0.18385177   -6.3708611   -222.02614  0.050947001   -6.1752301    209.19986 0.0031702572   -16.018021    10.362237  0.035051556   -466.93515 
 1000300    472.03557   -180.91266   -200.89052   -316.05713     303.8667    13.227729 -0.071826691   -16.523667   -222.05613  0.032810527   -16.181872    13.245981  -0.17136334   -6.3492585   -222.04864  0.031513164   -6.1947856    209.20823  0.010685237   -16.015551    10.363369  0.035146459   -466.93485 
 1000400    472.03557   -207.49124   -213.20545   -318.76183    303.79233    13.227288  -0.06442802    -16.49778   -222.03738  0.025700537   -16.187219    13.250427  -0.18446514    -6.324416   -222.03698  0.023247531   -6.1873894    209.21056 0.0049585522   -16.007194    10.364502  0.035241363   -466.93455 
 1000500    472.03557   -193.94535   -192.24055   -308.99376    303.79672    13.229545 -0.052865312   -16.504835   -222.02527 0.0079200926    -16.16901     13.24467  -0.17930828   -6.3415765   -222.02609 -0.0063562427   -6.1726619    209.19426  0.012080003   -16.011629    10.365634  0.035336267   -466.93425 
 1000600    472.03557   -168.55879   -183.67525   -281.90019    303.49119    13.225167 -0.056695567   -16.489474   -222.03137 -0.032455309   -16.184764     13.24514  -0.18268845   -6.3419983   -222.03305 -0.027310069   -6.1542727     209.1949  0.019719523   -16.023959    10.366766  0.035431171   -466.93395 
 1000700    472.03557   -180.60632     -213.811   -299.45942    304.00163    13.231236 -0.048756259   -16.491976   -222.01877  -0.04623769   -16.183058    13.256711  -0.15325638   -6.3527847   -222.03271 -0.054286228   -6.1723725     209.1674  0.017063466   -16.035659    10.367899  0.035526075   -466.93365 
 1000800    472.03557   -187.58307   -211.81816    -305.6187    303.89792    13.237206  -0.05451158   -16.522873   -222.02768 -0.050579648   -16.189787    13.280552   -0.1495125   -6.3589455   -222.06301 -0.078489168   -6.1841523     209.1605  0.010123925   -16.022045    10.369031  0.035620979   -466.93335 
 1000900    472.03557   -205.06745   -208.20782   -301.86803    303.92193    13.238594 -0.059665576   -16.507764   -222.05069  -0.02949242   -16.187167    13.272308  -0.17071939   -6.3673299   -222.07391 -0.040021208   -6.1816785     209.1792  0.018636706   -16.033949    10.370163  0.035715883   -466.93305 
 1001000    472.03557   -201.62894   -204.03861   -322.18423    303.79093    13.230982 -0.065729591   -16.483274   -222.07555 -0.038929831   -16.208671    13.237929  -0.18770197   -6.3392639   -222.09135 -0.032775836   -6.2235553    209.19115 -0.022512084   -16.039453    10.371296  0.035810787   -466.93275 
 1001100    472.03557   -233.69624   -234.58687   -353.15399    304.12839    13.242539 -0.051975723   -16.454697   -222.08493 -0.027229839    -16.21916     13.26787    -0.165687   -6.2994304   -222.11167 -0.028250776   -6.2198607    209.17029 -0.0080980449   -16.068786    10.372428  0.035905691   -466.93245 
 1001200    472.03557   -220.46769   -197.41525   -316.05233     303.7998    13.255127 -0.053506129   -16.448635   -222.11318 -0.011557012   -16.240466    13.301033  -0.15918763   -6.2856001   -222.14738 -0.0096915035   -6.2360489     209.1924 -0.0018095452   -16.041302    10.373561  0.036000595   -466.93215 
 1001300    472.03557   -268.80316   -250.96417   -337.12082    304.03893     13.26715 -0.020975771    -16.45835   -222.11436 -0.0094880474   -16.263381    13.312086  -0.12299746   -6.3097687   -222.12339 0.0074751747   -6.2796188      209.178  0.014919571   -16.047887    10.374693  0.036095499   -466.93185 
 1001400    472.03557   -223.49843   -223.04897   -322.77714    303.87494    13.273631 -0.039635138   -16.448557   -222.12436 -0.032689896   -16.268095    13.311075  -0.15945631    -6.327493   -222.12309 -0.029928095   -6.2691366    209.17248  0.030845906    -16.06154    10.375825  0.036190403   -466.93155 
 1001500    472.03557   -227.47393   -257.76766   -349.08816    303.69104    13.271384 -0.045856511    -16.44147   -222.11824 -0.038314264   -16.284773     13.30968  -0.15252492    -6.299163   -222.11282 -0.041855595   -6.3025266    209.16879   0.02073631   -16.074747    10.376958  0.036285307   -466.93125 
 1001600    472.03557   -254.32265   -253.88823   -353.81355    303.97409    13.295134 -0.044734222   -16.432654    -222.1161 -0.037809951    -16.28399    13.341924  -0.14870765   -6.2601767   -222.11342 -0.041886544   -6.2966768    209.18046  0.027240386   -16.057413     10.37809   0.03638021   -466.93095 
 1001700    472.03557   -275.93934    -246.6533   -379.31717    303.96472    13.281916 -0.033026996   -16.436172   -222.12177 -0.025070633   -16.315246      13.3078  -0.15393948   -6.2687871   -222.12872 -0.036836848   -6.3212565      209.172  0.026700574   -16.045469    10.379222  0.036475114   -466.93065 
 1001800    472.03557   -272.00494   -247.36985   -354.55629    303.78544    13.284403 -0.040067972   -16.455139   -222.12775 -0.019958549   -16.307651    13.305275  -0.17142646   -6.2837887   -222.12955 -0.032637698   -6.3311715    209.14973  0.046425044   -16.043858    10.380355  0.036570018   -466.93035 
 1001900    472.03557   -234.67752   -224.07566   -332.52464    303.86275    13.300939 -0.070211822   -16.432353   -222.12538  0.028162507   -16.309281    13.321336  -0.17355015   -6.2891647   -222.13083  0.017239281   -6.3269806     209.1432  0.035973926   -16.038493    10.381487  0.036664922   -466.93005 
 1002000    472.03557   -210.31486   -248.58302   -309.82283    303.83907    13.320443 -0.078258708     -16.4404   -222.12115  0.053701163   -16.291132    13.329084  -0.18419727   -6.2878249   -222.13102   0.04502097   -6.3148864    209.14593  0.042187175   -16.022553     10.38262  0.036759826   -466.92975 
 1002100    472.03557   -205.32199   -211.53985   -305.76923    303.79653    13.315538 -0.092636306   -16.423528   -222.12058  0.071706782   -16.304354    13.321919  -0.20435585   -6.2694278   -222.13786  0.057318905   -6.3357705    209.15347  0.037728258   -16.046016    10.383752   0.03685473   -466.92945 
 1002200    472.03557   -175.15531   -208.66857   -337.45341    303.63456    13.309104 -0.074736109   -16.396083   -222.12468  0.081015565   -16.317928    13.319139  -0.18861986   -6.2518833   -222.15246   0.11712761    -6.340988     209.1427  0.035825873    -16.05836    10.384884  0.036949634   -466.92915 
 1002300    472.03557   -204.41403   -199.39379   -299.02185    303.91444    13.307469 -0.066742717   -16.397029   -222.11074  0.070011122   -16.305651    13.333836  -0.17253416   -6.2578361   -222.13011   0.10738931   -6.3150646    209.16518  0.033029869   -16.063978    10.386017  0.037044538   -466.92885 
 1002400    472.03557   -226.16562   -204.89053   -313.94158    303.87307    13.305869 -0.040807932   -16.392033   -222.10557   0.05614089   -16.318862    13.330272  -0.16710913    -6.231985   -222.14155   0.07591923   -6.3231919    209.18464  0.029300365   -16.062801    10.387149  0.037139442   -466.92855 
 1002500    472.03557   -243.20683   -237.61716   -334.92295    303.84589    13.315652 -0.021221237   -16.388237   -222.08885  0.049603845    -16.32739    13.318567  -0.15591632   -6.2321919   -222.13421  0.032647811   -6.3436347    209.15516  0.053664746   -16.083373    10.388282  0.037234346   -466.92826 
 1002600    472.03557   -233.62108    -234.5105   -346.21502    303.70387    13.304906 -0.013746425   -16.410367   -222.09147  0.029893821   -16.302946    13.319901  -0.14926829   -6.2254051   -222.12916  0.016415996   -6.3140308    209.14584  0.058089928   -16.101771    10.389414   0.03732925   -466.92796 
 1002700    472.03557   -241.16612   -232.38059   -354.36503    304.17639    13.300966 -0.020333311   -16.399298   -222.07122  0.046166047   -16.318785      13.3132  -0.13548651   -6.2039847   -222.07463  0.046962846   -6.3286463     209.1477  0.054992019   -16.088323    10.390546  0.037424154   -466.92766 
 1002800    472.03557   -235.25979   -239.00683   -327.20884    303.84524     13.31951 -0.0065535645    -16.37928   -222.07578   0.04941663   -16.327858    13.342115  -0.11968012   -6.2152031   -222.06064  0.040175661    -6.355913    209.15476  0.062104631   -16.080684    10.391679  0.037519058   -466.92736 
 1002900    472.03557   -264.37143   -249.85113   -309.85931    304.00746    13.325194 -0.017454586   -16.376966   -222.08192  0.083026307   -16.310912    13.354905  -0.12642574   -6.2508421   -222.06094  0.070788985   -6.3207893    209.17616  0.039192995   -16.075391    10.392811  0.037613961   -466.92706 
 1003000    472.03557   -231.81835   -246.27819   -323.39085    304.09268    13.299432 -0.028281656    -16.40348    -222.0664  0.087242098    -16.29434    13.315436  -0.12470411   -6.2891233    -222.0458   0.06545017   -6.2830168    209.19457   0.01105737   -16.072016    10.393943  0.037708865   -466.92676 
 1003100    472.03557   -209.32883   -190.79307    -297.5232     303.4024    13.279908  -0.01268842   -16.405997   -222.05716  0.075686971   -16.298039    13.279587  -0.12385571   -6.2889866   -222.03291   0.06770114   -6.2654155    209.21165   0.01113624   -16.084924    10.395076  0.037803769   -466.92646 
 1003200    472.03557   -221.68228   -230.00065   -322.10983    303.75887    13.267636 -0.0078356397   -16.400442   -222.04951  0.075728574   -16.302009    13.297112  -0.12514771   -6.2606306   -222.02095   0.10007775   -6.2727316    209.22635 -0.0073678181   -16.087117    10.396208  0.037898673   -466.92616 
 1003300    472.03557   -243.70132   -229.90659   -325.49506     304.0992    13.251051 -0.0082570015   -16.418609    -222.0267  0.078837787   -16.311214    13.310687  -0.13393015   -6.2648259   -222.02076     0.100868   -6.3027667    209.23839 -0.002943344   -16.075289    10.397341  0.037993577   -466.92586 
 1003400    472.03557   -202.51785   -219.06774   -296.90863      304.028    13.259086 -0.025445778   -16.401397   -222.02209  0.060306166   -16.299786    13.327824  -0.12696844   -6.2427251   -222.06547   0.08594904   -6.2873367    209.24551 0.0092121053   -16.067682    10.398473  0.038088481   -466.92556 
 1003500    472.03557   -233.46268   -215.51136   -288.77374    304.01439    13.281143 -0.017021033   -16.403857   -222.02631  0.070182013   -16.287721    13.355345  -0.13394842   -6.2354547   -222.05696  0.099304067   -6.2981413    209.26487  0.021392599    -16.07865    10.399605  0.038183385   -466.92526 
 1003600    472.03557   -209.07779   -184.25316   -278.62457    303.82575    13.276698 -0.022246187   -16.422878   -222.02957  0.079140842   -16.285705    13.325305  -0.15388883    -6.253511   -222.05696   0.06110901   -6.3114697     209.2747  0.014334392   -16.104878    10.400738  0.038278289   -466.92496 
 1003700    472.03557   -218.29187    -186.2949   -306.26097     304.0593     13.29093 -0.0092372171    -16.41908   -222.04553  0.051480441   -16.289186    13.341541  -0.13619077   -6.2468254   -222.06625   0.03616509   -6.3408303    209.27926  0.024792106   -16.112748     10.40187  0.038373193   -466.92466 
 1003800    472.03557   -207.22408   -199.12837   -278.73792    303.77926    13.284753 0.0061538214   -16.409955   -222.06667  0.071639549   -16.289084    13.342009 -0.087597281   -6.2239492   -222.07744  0.037914079   -6.3196267    209.30084   0.03382723   -16.085681    10.403002  0.038468097   -466.92436 
 1003900    472.03557    -192.4233   -169.65033   -271.22132    303.80048    13.281502  0.023647999    -16.40589   -222.02884  0.052822338    -16.28185    13.342216 -0.064113049   -6.2129123    -222.0353  0.030506429   -6.3101018    209.33927  0.044263104   -16.081652    10.404135  0.038563001   -466.92406 
 1004000    472.03557   -157.22516   -175.87269   -250.99315    303.35445    13.276605   0.06033312   -16.428777   -222.02148  0.057334198   -16.307531    13.319311 -0.014883538   -6.2325702    -222.0197  0.047668045   -6.3271496    209.31007   0.05660357   -16.066826    10.405267  0.038657905   -466.92376 
 1004100    472.03557   -205.07615   -185.83807   -281.54016    303.94937    13.271338  0.036151803   -16.418193   -222.01485  0.062690994   -16.329831    13.296043  -0.05881351   -6.2476594   -221.99547  0.066659615   -6.3105534    209.30461  0.080022566   -16.069825      10.4064  0.038752809   -466.92346 
 1004200    472.03557    -211.4817   -178.15677   -276.22157    303.75807    13.273799  0.030663048   -16.441782   -222.00409  0.045778066   -16.312536    13.300257 -0.063510491   -6.2955344   -221.99122  0.046833685   -6.3094831     209.3083   0.11212037   -16.054856    10.407532  0.038847712   -466.92316 
 1004300    472.03557   -215.55778   -166.99392   -268.19287     303.8765    13.272806  0.028980135   -16.453352   -221.97649   0.03272594   -16.326963    13.304659 -0.064265706   -6.3041332   -221.94847  0.037859494   -6.3342786    209.28981   0.13556926   -16.059741    10.408664  0.038942616   -466.92286 
 1004400    472.03557   -155.36241    -169.1263   -284.15537    303.59407    13.275732  0.029725742   -16.498375   -221.95596  0.041894175   -16.324786    13.301964 -0.075887785   -6.3530414   -221.92425  0.032345673   -6.3134419    209.28678   0.14440191   -16.076872    10.409797   0.03903752   -466.92256 
 1004500    472.03557   -155.61085   -129.82446   -243.09323     303.7493    13.281462  0.031377657   -16.514293   -221.96244  0.056340998   -16.308843    13.317164 -0.083097111   -6.3787735   -221.92764  0.060897812   -6.2940503    209.26408   0.14295305   -16.089379    10.410929  0.039132424   -466.92226 
 1004600    472.03557   -133.26807   -156.91623   -207.01646     303.9703     13.30323  0.012638347    -16.53913   -221.94473  0.072800576   -16.306627    13.339006  -0.10171364   -6.4224765   -221.92224  0.072314197   -6.2830281    209.26962   0.14435492   -16.094138    10.412061  0.039227328   -466.92196 
 1004700    472.03557    -152.1132   -123.76335   -220.67137    303.97564    13.321228 0.0056734122   -16.533598   -221.94132  0.088959371   -16.317999    13.356134  -0.13144844   -6.4082029   -221.92466  0.094788784   -6.3186456    209.28551   0.16417983   -16.078792    10.413194  0.039322232   -466.92166 
 1004800    472.03557   -101.69757   -117.62836   -185.48784    303.97248    13.307164  -0.04247337   -16.538626   -221.93945   0.10150321   -16.305288    13.325755  -0.19328013   -6.3685982    -221.9193   0.09170571   -6.2997198    209.27184   0.15991044   -16.069601    10.414326  0.039417136   -466.92136 
 1004900    472.03557   -123.29954   -103.07132   -171.62325    303.75792    13.324662 -0.068363157   -16.527858   -221.96615   0.13410734   -16.301967    13.342171  -0.18680162   -6.3533077   -221.96536    0.1237167   -6.2796112    209.29416   0.14250921   -16.069708    10.415459   0.03951204   -466.92106 
 1005000    472.03557   -103.76349   -122.43516   -185.54164    303.64564    13.341745 -0.061286977   -16.520234   -221.98832   0.13837919   -16.330037    13.345898  -0.17947815   -6.3455537   -222.00838   0.12687028   -6.3165402    209.28956   0.15261873   -16.073372    10.416591  0.039606944   -466.92076 
Loop time of 13349.6 on 512 procs for 1000000 steps with 812617 atoms

Performance: 12.944 ns/day, 1.854 hours/ns, 74.908 timesteps/s
99.9% CPU use with 512 MPI tasks x no OpenMP threads

MPI task timing breakdown:
Section |  min time  |  avg time  |  max time  |%varavg| %total
---------------------------------------------------------------
Pair    | 3645.2     | 8125       | 8713.8     |1054.4 | 60.86
Neigh   | 0.0027122  | 1.1205     | 1.3062     |  22.6 |  0.01
Comm    | 453.97     | 1994.2     | 4009.6     |1000.8 | 14.94
Output  | 6.3959     | 6.5411     | 7.3446     |   1.6 |  0.05
Modify  | 79.074     | 102.39     | 110.18     |  45.8 |  0.77
Other   |            | 3120       |            |       | 23.37

Nlocal:    1587.14 ave 1813 max 0 min
Histogram: 16 0 0 0 0 16 5 11 49 415
Nghost:    4305.1 ave 4832 max 2 min
Histogram: 16 0 0 0 5 11 16 0 0 464
Neighs:    111788 ave 128077 max 0 min
Histogram: 16 0 0 0 16 0 9 7 82 382

Total # of neighbors = 57235289
Ave neighs/atom = 70.4333
Neighbor list builds = 189
Dangerous builds = 0



Total wall time: 3:48:09
