LAMMPS (16 Feb 2016)
# ------------------------ INITIALIZATION ----------------------------
echo both
#log		log.c
units           metal
dimension       3
boundary        p p p
atom_style      atomic
shell         mkdir  dump
WARNING: Shell command 'mkdir' failed with error 'File exists' (../input.cpp:1126)
shell         mkdir  xyz
WARNING: Shell command 'mkdir' failed with error 'File exists' (../input.cpp:1126)
variable      myT equal 50

# ----------------------- ATOM DEFINITION ----------------------------
lattice         fcc 3.615 origin 0.0 0.0 0.0 orient x  2  1 0 orient y -1 2 0 orient z  0  0  1
Lattice spacing in x,y,z = 4.85003 4.85003 3.615
variable        Lx equal 40
variable        Ly equal 5
variable        Lz equal 160
region          SYSTEM block -${Lx} ${Lx} -0 ${Ly} -${Lz} 0  units lattice
region          SYSTEM block -40 ${Lx} -0 ${Ly} -${Lz} 0  units lattice
region          SYSTEM block -40 40 -0 ${Ly} -${Lz} 0  units lattice
region          SYSTEM block -40 40 -0 5 -${Lz} 0  units lattice
region          SYSTEM block -40 40 -0 5 -160 0  units lattice
region          BOX block -${Lx} ${Lx} -0 ${Ly}  -${Lz} 5  units lattice
region          BOX block -40 ${Lx} -0 ${Ly}  -${Lz} 5  units lattice
region          BOX block -40 40 -0 ${Ly}  -${Lz} 5  units lattice
region          BOX block -40 40 -0 5  -${Lz} 5  units lattice
region          BOX block -40 40 -0 5  -160 5  units lattice
create_box      1 BOX
Created orthogonal box = (-194.001 -0 -578.4) to (194.001 24.2502 18.075)
  16 by 1 by 32 MPI processor grid
create_atoms    1 region SYSTEM
Created 461920 atoms

# ------------------------ FORCE FIELDS ------------------------------
pair_style      eam/alloy
pair_coeff  	  * * Cu01.eam.alloy Cu

# ------------------------- SETTINGS ---------------------------------
thermo          10
thermo_style    custom step pe pxx pyy pzz lx ly lz vol temp

#dump          2 all custom 100 dump/dump*.atom id type x y z
#dump          1 all xyz 100 xyz/all*.xyz
#dump_modify   1 element Al

minimize      0  1e-12 10000 10000
WARNING: Resetting reneighboring criteria during minimization (../min.cpp:168)
Neighbor list info ...
  1 neighbor list requests
  update every 1 steps, delay 0 steps, check yes
  max neighbors/atom: 2000, page size: 100000
  master list distance cutoff = 7.50679
  ghost atom cutoff = 7.50679
  binsize = 3.75339 -> bins = 104 7 159
Memory usage per processor = 4.00126 Mbytes
Step PotEng Pxx Pyy Pzz Lx Ly Lz Volume Temp 
       0   -1633193.5   -900.82529     -900.805   -489.17305    388.00252    24.250157      596.475      5612306            0 
      10   -1633214.2   -833.03822   -820.44886   -320.76924    388.00252    24.250157      596.475      5612306            0 
      20   -1633214.8   -820.96573   -803.64699   -298.55394    388.00252    24.250157      596.475      5612306            0 
      30     -1633215   -811.80643   -794.24375   -284.44676    388.00252    24.250157      596.475      5612306            0 
      40   -1633215.1   -803.97664   -785.58009   -272.66451    388.00252    24.250157      596.475      5612306            0 
      50   -1633215.2   -796.67344   -778.22268   -262.14805    388.00252    24.250157      596.475      5612306            0 
      60   -1633215.2   -789.58168   -770.97112   -252.02927    388.00252    24.250157      596.475      5612306            0 
      70   -1633215.3   -782.55655   -763.71384   -242.03103    388.00252    24.250157      596.475      5612306            0 
      80   -1633215.3   -775.54688    -756.7313   -232.23586    388.00252    24.250157      596.475      5612306            0 
      90   -1633215.3   -768.66677   -749.65377   -222.50772    388.00252    24.250157      596.475      5612306            0 
     100   -1633215.3   -762.29442   -743.35441   -213.65778    388.00252    24.250157      596.475      5612306            0 
     110   -1633215.3   -759.25384   -740.19368   -209.35359    388.00252    24.250157      596.475      5612306            0 
     120   -1633215.3   -754.13592   -735.15004     -202.292    388.00252    24.250157      596.475      5612306            0 
     130   -1633215.3   -747.30503   -728.23762   -192.76794    388.00252    24.250157      596.475      5612306            0 
     140   -1633215.3   -738.82137   -719.78772   -181.01775    388.00252    24.250157      596.475      5612306            0 
     150   -1633215.3   -728.81466   -709.77616   -167.12748    388.00252    24.250157      596.475      5612306            0 
     160   -1633215.3   -717.60914   -698.49173   -151.54346    388.00252    24.250157      596.475      5612306            0 
     170   -1633215.4   -704.85127   -685.80243   -133.89787    388.00252    24.250157      596.475      5612306            0 
     180   -1633215.4   -691.51119   -672.35599   -115.34511    388.00252    24.250157      596.475      5612306            0 
     190   -1633215.4   -678.22685   -659.16781   -96.997281    388.00252    24.250157      596.475      5612306            0 
     200   -1633215.4   -665.80859   -646.64191   -79.627695    388.00252    24.250157      596.475      5612306            0 
     210   -1633215.4   -658.23742   -639.11739    -69.13033    388.00252    24.250157      596.475      5612306            0 
     220   -1633215.4   -651.48682   -632.39479   -59.808765    388.00252    24.250157      596.475      5612306            0 
     230   -1633215.4   -645.09416   -626.01533   -51.010044    388.00252    24.250157      596.475      5612306            0 
     240   -1633215.4   -641.53855   -622.48044    -46.10547    388.00252    24.250157      596.475      5612306            0 
     250   -1633215.4   -638.95355    -619.8668   -42.520605    388.00252    24.250157      596.475      5612306            0 
     260   -1633215.4    -636.7186   -617.65269   -39.447329    388.00252    24.250157      596.475      5612306            0 
     270   -1633215.4   -634.87689   -615.79537   -36.913341    388.00252    24.250157      596.475      5612306            0 
     280   -1633215.4   -633.06395   -613.99154   -34.421879    388.00252    24.250157      596.475      5612306            0 
     290   -1633215.4   -631.08162   -612.00343   -31.684385    388.00252    24.250157      596.475      5612306            0 
     300   -1633215.4   -628.90034   -609.82271   -28.671121    388.00252    24.250157      596.475      5612306            0 
     310   -1633215.4   -627.24143   -608.16472   -26.384441    388.00252    24.250157      596.475      5612306            0 
     320   -1633215.4   -625.18268   -606.10457    -23.53513    388.00252    24.250157      596.475      5612306            0 
     330   -1633215.4   -622.51779     -603.444   -19.852078    388.00252    24.250157      596.475      5612306            0 
     340   -1633215.4   -618.93864   -599.87361   -14.918201    388.00252    24.250157      596.475      5612306            0 
     350   -1633215.4   -616.57792   -597.51498   -11.672042    388.00252    24.250157      596.475      5612306            0 
     360   -1633215.4   -614.71338   -595.64593   -9.0890389    388.00252    24.250157      596.475      5612306            0 
     370   -1633215.4    -613.2552   -594.18038   -7.0662951    388.00252    24.250157      596.475      5612306            0 
     380   -1633215.4   -612.07399   -593.00469   -5.4352602    388.00252    24.250157      596.475      5612306            0 
     390   -1633215.4   -611.12547   -592.04862   -4.1115543    388.00252    24.250157      596.475      5612306            0 
     400   -1633215.4   -610.24215   -591.16863   -2.8872514    388.00252    24.250157      596.475      5612306            0 
     410   -1633215.4   -609.78583   -590.71333     -2.24931    388.00252    24.250157      596.475      5612306            0 
     420   -1633215.4   -609.51329   -590.44495   -1.8776452    388.00252    24.250157      596.475      5612306            0 
     430   -1633215.4   -609.31612   -590.24048   -1.5994035    388.00252    24.250157      596.475      5612306            0 
     440   -1633215.4   -609.14382   -590.06879   -1.3586504    388.00252    24.250157      596.475      5612306            0 
     450   -1633215.4   -609.02075   -589.94502   -1.1877291    388.00252    24.250157      596.475      5612306            0 
     460   -1633215.4   -608.89761   -589.82514   -1.0178413    388.00252    24.250157      596.475      5612306            0 
     470   -1633215.4   -608.77747   -589.70271  -0.85976505    388.00252    24.250157      596.475      5612306            0 
     480   -1633215.4   -608.73561   -589.65934  -0.80320996    388.00252    24.250157      596.475      5612306            0 
     490   -1633215.4   -608.67251   -589.60067  -0.72175766    388.00252    24.250157      596.475      5612306            0 
     500   -1633215.4   -608.60548   -589.53142  -0.62989219    388.00252    24.250157      596.475      5612306            0 
     510   -1633215.4   -608.54278   -589.47099   -0.5451443    388.00252    24.250157      596.475      5612306            0 
     520   -1633215.4   -608.49471   -589.42349  -0.48005013    388.00252    24.250157      596.475      5612306            0 
     530   -1633215.4   -608.46952   -589.39871  -0.44698544    388.00252    24.250157      596.475      5612306            0 
     540   -1633215.4     -608.448   -589.37667  -0.41650069    388.00252    24.250157      596.475      5612306            0 
     550   -1633215.4   -608.41167   -589.34169  -0.36799559    388.00252    24.250157      596.475      5612306            0 
     560   -1633215.4   -608.37942   -589.30959  -0.32427386    388.00252    24.250157      596.475      5612306            0 
     570   -1633215.4   -608.33979   -589.27046   -0.2705599    388.00252    24.250157      596.475      5612306            0 
     580   -1633215.4   -608.30269   -589.23336  -0.21899891    388.00252    24.250157      596.475      5612306            0 
     590   -1633215.4   -608.25971   -589.19131  -0.16096995    388.00252    24.250157      596.475      5612306            0 
     600   -1633215.4   -608.21957   -589.15178  -0.10605306    388.00252    24.250157      596.475      5612306            0 
     610   -1633215.4   -608.18676   -589.11925 -0.061230309    388.00252    24.250157      596.475      5612306            0 
     620   -1633215.4   -608.16061   -589.09311 -0.025305014    388.00252    24.250157      596.475      5612306            0 
     630   -1633215.4   -608.14473   -589.07733 -0.0036429453    388.00252    24.250157      596.475      5612306            0 
     640   -1633215.4   -608.13487    -589.0675 0.0097397996    388.00252    24.250157      596.475      5612306            0 
     650   -1633215.4    -608.1274   -589.06029  0.019622645    388.00252    24.250157      596.475      5612306            0 
     660   -1633215.4   -608.12477   -589.05774   0.02306074    388.00252    24.250157      596.475      5612306            0 
     670   -1633215.4   -608.13281   -589.06577  0.012119499    388.00252    24.250157      596.475      5612306            0 
     680   -1633215.4   -608.13543   -589.06841 0.0084137019    388.00252    24.250157      596.475      5612306            0 
     690   -1633215.4   -608.13691   -589.06983 0.0064508705    388.00252    24.250157      596.475      5612306            0 
     700   -1633215.4   -608.13925   -589.07232 0.0031354916    388.00252    24.250157      596.475      5612306            0 
     710   -1633215.4   -608.14257   -589.07555 -0.0014257849    388.00252    24.250157      596.475      5612306            0 
     720   -1633215.4   -608.14723   -589.08019 -0.0077910705    388.00252    24.250157      596.475      5612306            0 
     730   -1633215.4   -608.14978   -589.08273 -0.011330615    388.00252    24.250157      596.475      5612306            0 
     740   -1633215.4   -608.14973   -589.08269 -0.011315879    388.00252    24.250157      596.475      5612306            0 
     750   -1633215.4   -608.14955    -589.0825 -0.011009493    388.00252    24.250157      596.475      5612306            0 
     760   -1633215.4   -608.14924   -589.08217 -0.010582263    388.00252    24.250157      596.475      5612306            0 
     770   -1633215.4   -608.14825   -589.08118 -0.0091721027    388.00252    24.250157      596.475      5612306            0 
     780   -1633215.4   -608.14668   -589.07963 -0.0070156604    388.00252    24.250157      596.475      5612306            0 
     790   -1633215.4   -608.14535   -589.07826 -0.0051684892    388.00252    24.250157      596.475      5612306            0 
     800   -1633215.4   -608.14413   -589.07707 -0.0035006741    388.00252    24.250157      596.475      5612306            0 
     810   -1633215.4   -608.14289   -589.07582 -0.0017843191    388.00252    24.250157      596.475      5612306            0 
     820   -1633215.4   -608.14233   -589.07525 -0.0010005471    388.00252    24.250157      596.475      5612306            0 
     830   -1633215.4   -608.14205   -589.07498 -0.00063722786    388.00252    24.250157      596.475      5612306            0 
     840   -1633215.4   -608.14196   -589.07489 -0.00053096988    388.00252    24.250157      596.475      5612306            0 
     850   -1633215.4   -608.14189   -589.07482 -0.00043267488    388.00252    24.250157      596.475      5612306            0 
     860   -1633215.4   -608.14186   -589.07479 -0.00039433991    388.00252    24.250157      596.475      5612306            0 
     870   -1633215.4   -608.14182   -589.07476 -0.00034310026    388.00252    24.250157      596.475      5612306            0 
     880   -1633215.4   -608.14177   -589.07471 -0.00027846473    388.00252    24.250157      596.475      5612306            0 
     890   -1633215.4   -608.14171   -589.07465 -0.00019807443    388.00252    24.250157      596.475      5612306            0 
     900   -1633215.4   -608.14167    -589.0746 -0.00013517018    388.00252    24.250157      596.475      5612306            0 
     910   -1633215.4   -608.14163   -589.07457 -8.5821132e-05    388.00252    24.250157      596.475      5612306            0 
     920   -1633215.4    -608.1416   -589.07454 -4.0945574e-05    388.00252    24.250157      596.475      5612306            0 
     930   -1633215.4   -608.14157   -589.07451 1.0592416e-06    388.00252    24.250157      596.475      5612306            0 
     940   -1633215.4   -608.14154   -589.07448 3.8086227e-05    388.00252    24.250157      596.475      5612306            0 
     950   -1633215.4   -608.14153   -589.07447 4.9568077e-05    388.00252    24.250157      596.475      5612306            0 
     960   -1633215.4   -608.14154   -589.07447 4.6327301e-05    388.00252    24.250157      596.475      5612306            0 
     970   -1633215.4   -608.14155   -589.07449 2.8011829e-05    388.00252    24.250157      596.475      5612306            0 
     980   -1633215.4   -608.14157   -589.07451 -3.2365746e-06    388.00252    24.250157      596.475      5612306            0 
     990   -1633215.4   -608.14159   -589.07453 -3.5054047e-05    388.00252    24.250157      596.475      5612306            0 
    1000   -1633215.4    -608.1416   -589.07454 -4.0753247e-05    388.00252    24.250157      596.475      5612306            0 
    1010   -1633215.4   -608.14159   -589.07453 -3.4419341e-05    388.00252    24.250157      596.475      5612306            0 
    1020   -1633215.4    -608.1416   -589.07453 -3.5716126e-05    388.00252    24.250157      596.475      5612306            0 
    1030   -1633215.4    -608.1416   -589.07454 -4.0699176e-05    388.00252    24.250157      596.475      5612306            0 
    1040   -1633215.4    -608.1416   -589.07454 -4.2187039e-05    388.00252    24.250157      596.475      5612306            0 
    1050   -1633215.4    -608.1416   -589.07454 -3.9604564e-05    388.00252    24.250157      596.475      5612306            0 
    1060   -1633215.4    -608.1416   -589.07453 -3.6230214e-05    388.00252    24.250157      596.475      5612306            0 
    1070   -1633215.4   -608.14159   -589.07453 -3.4647901e-05    388.00252    24.250157      596.475      5612306            0 
    1080   -1633215.4   -608.14159   -589.07453 -3.2721541e-05    388.00252    24.250157      596.475      5612306            0 
    1090   -1633215.4   -608.14159   -589.07453 -3.1064601e-05    388.00252    24.250157      596.475      5612306            0 
    1100   -1633215.4   -608.14159   -589.07453 -2.9733785e-05    388.00252    24.250157      596.475      5612306            0 
    1110   -1633215.4   -608.14159   -589.07453 -2.8904637e-05    388.00252    24.250157      596.475      5612306            0 
    1120   -1633215.4   -608.14159   -589.07453 -2.8210112e-05    388.00252    24.250157      596.475      5612306            0 
    1130   -1633215.4   -608.14159   -589.07453 -2.7375525e-05    388.00252    24.250157      596.475      5612306            0 
    1140   -1633215.4   -608.14159   -589.07453 -2.6587533e-05    388.00252    24.250157      596.475      5612306            0 
    1150   -1633215.4   -608.14159   -589.07453 -2.563798e-05    388.00252    24.250157      596.475      5612306            0 
    1160   -1633215.4   -608.14159   -589.07452 -2.4858375e-05    388.00252    24.250157      596.475      5612306            0 
    1170   -1633215.4   -608.14159   -589.07452 -2.4238886e-05    388.00252    24.250157      596.475      5612306            0 
    1180   -1633215.4   -608.14159   -589.07452 -2.3196633e-05    388.00252    24.250157      596.475      5612306            0 
    1190   -1633215.4   -608.14159   -589.07452 -2.1891571e-05    388.00252    24.250157      596.475      5612306            0 
    1200   -1633215.4   -608.14158   -589.07452 -2.0630235e-05    388.00252    24.250157      596.475      5612306            0 
    1210   -1633215.4   -608.14158   -589.07452 -1.9087822e-05    388.00252    24.250157      596.475      5612306            0 
    1220   -1633215.4   -608.14158   -589.07452 -1.7442529e-05    388.00252    24.250157      596.475      5612306            0 
    1230   -1633215.4   -608.14158   -589.07452 -1.5415819e-05    388.00252    24.250157      596.475      5612306            0 
    1240   -1633215.4   -608.14158   -589.07452 -1.2864889e-05    388.00252    24.250157      596.475      5612306            0 
    1250   -1633215.4   -608.14158   -589.07451 -1.0027036e-05    388.00252    24.250157      596.475      5612306            0 
    1260   -1633215.4   -608.14157   -589.07451 -7.3873535e-06    388.00252    24.250157      596.475      5612306            0 
    1270   -1633215.4   -608.14157   -589.07451 -5.5812782e-06    388.00252    24.250157      596.475      5612306            0 
    1280   -1633215.4   -608.14157   -589.07451 -4.5477371e-06    388.00252    24.250157      596.475      5612306            0 
    1290   -1633215.4   -608.14157   -589.07451 -3.9149335e-06    388.00252    24.250157      596.475      5612306            0 
    1300   -1633215.4   -608.14157   -589.07451 -3.5705694e-06    388.00252    24.250157      596.475      5612306            0 
    1310   -1633215.4   -608.14157   -589.07451 -3.2511864e-06    388.00252    24.250157      596.475      5612306            0 
    1320   -1633215.4   -608.14157   -589.07451 -2.898765e-06    388.00252    24.250157      596.475      5612306            0 
    1330   -1633215.4   -608.14157   -589.07451 -2.6364739e-06    388.00252    24.250157      596.475      5612306            0 
    1340   -1633215.4   -608.14157   -589.07451 -2.4861969e-06    388.00252    24.250157      596.475      5612306            0 
    1350   -1633215.4   -608.14157   -589.07451 -2.385295e-06    388.00252    24.250157      596.475      5612306            0 
    1360   -1633215.4   -608.14157   -589.07451 -2.3169753e-06    388.00252    24.250157      596.475      5612306            0 
    1370   -1633215.4   -608.14157   -589.07451 -2.244864e-06    388.00252    24.250157      596.475      5612306            0 
    1380   -1633215.4   -608.14157   -589.07451 -2.1236353e-06    388.00252    24.250157      596.475      5612306            0 
    1390   -1633215.4   -608.14157   -589.07451 -1.9533583e-06    388.00252    24.250157      596.475      5612306            0 
    1400   -1633215.4   -608.14157   -589.07451 -1.7475309e-06    388.00252    24.250157      596.475      5612306            0 
    1410   -1633215.4   -608.14157   -589.07451 -1.532553e-06    388.00252    24.250157      596.475      5612306            0 
    1420   -1633215.4   -608.14157   -589.07451 -1.3029924e-06    388.00252    24.250157      596.475      5612306            0 
    1430   -1633215.4   -608.14157   -589.07451 -1.1334428e-06    388.00252    24.250157      596.475      5612306            0 
    1440   -1633215.4   -608.14157   -589.07451 -1.0248485e-06    388.00252    24.250157      596.475      5612306            0 
    1450   -1633215.4   -608.14157   -589.07451 -9.3739957e-07    388.00252    24.250157      596.475      5612306            0 
    1460   -1633215.4   -608.14157   -589.07451 -8.709144e-07    388.00252    24.250157      596.475      5612306            0 
    1470   -1633215.4   -608.14157   -589.07451 -8.2148789e-07    388.00252    24.250157      596.475      5612306            0 
    1480   -1633215.4   -608.14157   -589.07451 -7.8749179e-07    388.00252    24.250157      596.475      5612306            0 
    1490   -1633215.4   -608.14157   -589.07451 -7.657031e-07    388.00252    24.250157      596.475      5612306            0 
    1500   -1633215.4   -608.14157   -589.07451 -7.5143751e-07    388.00252    24.250157      596.475      5612306            0 
    1510   -1633215.4   -608.14157   -589.07451 -7.4228158e-07    388.00252    24.250157      596.475      5612306            0 
    1520   -1633215.4   -608.14157   -589.07451 -7.3638033e-07    388.00252    24.250157      596.475      5612306            0 
    1530   -1633215.4   -608.14157   -589.07451 -7.3220582e-07    388.00252    24.250157      596.475      5612306            0 
    1540   -1633215.4   -608.14157   -589.07451 -7.2868136e-07    388.00252    24.250157      596.475      5612306            0 
    1550   -1633215.4   -608.14157   -589.07451 -7.2542723e-07    388.00252    24.250157      596.475      5612306            0 
    1560   -1633215.4   -608.14157   -589.07451 -7.2245771e-07    388.00252    24.250157      596.475      5612306            0 
    1570   -1633215.4   -608.14157   -589.07451 -7.1967471e-07    388.00252    24.250157      596.475      5612306            0 
    1580   -1633215.4   -608.14157   -589.07451 -7.1709034e-07    388.00252    24.250157      596.475      5612306            0 
    1590   -1633215.4   -608.14157   -589.07451 -7.1457561e-07    388.00252    24.250157      596.475      5612306            0 
    1600   -1633215.4   -608.14157   -589.07451 -7.121155e-07    388.00252    24.250157      596.475      5612306            0 
    1610   -1633215.4   -608.14157   -589.07451 -7.0987436e-07    388.00252    24.250157      596.475      5612306            0 
    1620   -1633215.4   -608.14157   -589.07451 -7.076155e-07    388.00252    24.250157      596.475      5612306            0 
    1630   -1633215.4   -608.14157   -589.07451 -7.0550483e-07    388.00252    24.250157      596.475      5612306            0 
    1640   -1633215.4   -608.14157   -589.07451 -7.0342577e-07    388.00252    24.250157      596.475      5612306            0 
    1650   -1633215.4   -608.14157   -589.07451 -7.0140593e-07    388.00252    24.250157      596.475      5612306            0 
    1660   -1633215.4   -608.14157   -589.07451 -6.9942571e-07    388.00252    24.250157      596.475      5612306            0 
    1670   -1633215.4   -608.14157   -589.07451 -6.9761378e-07    388.00252    24.250157      596.475      5612306            0 
    1680   -1633215.4   -608.14157   -589.07451 -6.9580882e-07    388.00252    24.250157      596.475      5612306            0 
    1690   -1633215.4   -608.14157   -589.07451 -6.9401417e-07    388.00252    24.250157      596.475      5612306            0 
    1700   -1633215.4   -608.14157   -589.07451 -6.923053e-07    388.00252    24.250157      596.475      5612306            0 
    1710   -1633215.4   -608.14157   -589.07451 -6.9064332e-07    388.00252    24.250157      596.475      5612306            0 
    1720   -1633215.4   -608.14157   -589.07451 -6.890391e-07    388.00252    24.250157      596.475      5612306            0 
    1730   -1633215.4   -608.14157   -589.07451 -6.8744229e-07    388.00252    24.250157      596.475      5612306            0 
    1740   -1633215.4   -608.14157   -589.07451 -6.8587818e-07    388.00252    24.250157      596.475      5612306            0 
    1750   -1633215.4   -608.14157   -589.07451 -6.8438376e-07    388.00252    24.250157      596.475      5612306            0 
    1760   -1633215.4   -608.14157   -589.07451 -6.8293702e-07    388.00252    24.250157      596.475      5612306            0 
    1770   -1633215.4   -608.14157   -589.07451 -6.8154494e-07    388.00252    24.250157      596.475      5612306            0 
    1780   -1633215.4   -608.14157   -589.07451 -6.8011897e-07    388.00252    24.250157      596.475      5612306            0 
    1790   -1633215.4   -608.14157   -589.07451 -6.78738e-07    388.00252    24.250157      596.475      5612306            0 
    1800   -1633215.4   -608.14157   -589.07451 -6.7744103e-07    388.00252    24.250157      596.475      5612306            0 
    1810   -1633215.4   -608.14157   -589.07451 -6.7618943e-07    388.00252    24.250157      596.475      5612306            0 
    1820   -1633215.4   -608.14157   -589.07451 -6.749247e-07    388.00252    24.250157      596.475      5612306            0 
    1830   -1633215.4   -608.14157   -589.07451 -6.7366625e-07    388.00252    24.250157      596.475      5612306            0 
    1840   -1633215.4   -608.14157   -589.07451 -6.7245772e-07    388.00252    24.250157      596.475      5612306            0 
    1850   -1633215.4   -608.14157   -589.07451 -6.7132849e-07    388.00252    24.250157      596.475      5612306            0 
    1860   -1633215.4   -608.14157   -589.07451 -6.7027809e-07    388.00252    24.250157      596.475      5612306            0 
    1870   -1633215.4   -608.14157   -589.07451 -6.6922115e-07    388.00252    24.250157      596.475      5612306            0 
    1880   -1633215.4   -608.14157   -589.07451 -6.6824722e-07    388.00252    24.250157      596.475      5612306            0 
    1890   -1633215.4   -608.14157   -589.07451 -6.6722989e-07    388.00252    24.250157      596.475      5612306            0 
    1900   -1633215.4   -608.14157   -589.07451 -6.662294e-07    388.00252    24.250157      596.475      5612306            0 
    1910   -1633215.4   -608.14157   -589.07451 -6.6527868e-07    388.00252    24.250157      596.475      5612306            0 
    1920   -1633215.4   -608.14157   -589.07451 -6.6439992e-07    388.00252    24.250157      596.475      5612306            0 
    1930   -1633215.4   -608.14157   -589.07451 -6.6352808e-07    388.00252    24.250157      596.475      5612306            0 
    1940   -1633215.4   -608.14157   -589.07451 -6.6263741e-07    388.00252    24.250157      596.475      5612306            0 
    1950   -1633215.4   -608.14157   -589.07451 -6.6181638e-07    388.00252    24.250157      596.475      5612306            0 
    1960   -1633215.4   -608.14157   -589.07451 -6.6098211e-07    388.00252    24.250157      596.475      5612306            0 
    1970   -1633215.4   -608.14157   -589.07451 -6.6012495e-07    388.00252    24.250157      596.475      5612306            0 
    1980   -1633215.4   -608.14157   -589.07451 -6.5934898e-07    388.00252    24.250157      596.475      5612306            0 
    1990   -1633215.4   -608.14157   -589.07451 -6.5851658e-07    388.00252    24.250157      596.475      5612306            0 
    2000   -1633215.4   -608.14157   -589.07451 -6.5774675e-07    388.00252    24.250157      596.475      5612306            0 
    2010   -1633215.4   -608.14157   -589.07451 -6.5700679e-07    388.00252    24.250157      596.475      5612306            0 
    2020   -1633215.4   -608.14157   -589.07451 -6.5627993e-07    388.00252    24.250157      596.475      5612306            0 
    2030   -1633215.4   -608.14157   -589.07451 -6.5555925e-07    388.00252    24.250157      596.475      5612306            0 
    2040   -1633215.4   -608.14157   -589.07451 -6.5486631e-07    388.00252    24.250157      596.475      5612306            0 
    2050   -1633215.4   -608.14157   -589.07451 -6.5417223e-07    388.00252    24.250157      596.475      5612306            0 
    2060   -1633215.4   -608.14157   -589.07451 -6.5347914e-07    388.00252    24.250157      596.475      5612306            0 
    2070   -1633215.4   -608.14157   -589.07451 -6.5284304e-07    388.00252    24.250157      596.475      5612306            0 
    2080   -1633215.4   -608.14157   -589.07451 -6.5219153e-07    388.00252    24.250157      596.475      5612306            0 
    2090   -1633215.4   -608.14157   -589.07451 -6.5155791e-07    388.00252    24.250157      596.475      5612306            0 
    2100   -1633215.4   -608.14157   -589.07451 -6.5093057e-07    388.00252    24.250157      596.475      5612306            0 
    2110   -1633215.4   -608.14157   -589.07451 -6.5035812e-07    388.00252    24.250157      596.475      5612306            0 
    2120   -1633215.4   -608.14157   -589.07451 -6.4972894e-07    388.00252    24.250157      596.475      5612306            0 
    2130   -1633215.4   -608.14157   -589.07451 -6.4915926e-07    388.00252    24.250157      596.475      5612306            0 
    2140   -1633215.4   -608.14157   -589.07451 -6.4861805e-07    388.00252    24.250157      596.475      5612306            0 
    2150   -1633215.4   -608.14157   -589.07451 -6.480515e-07    388.00252    24.250157      596.475      5612306            0 
    2160   -1633215.4   -608.14157   -589.07451 -6.4749631e-07    388.00252    24.250157      596.475      5612306            0 
    2170   -1633215.4   -608.14157   -589.07451 -6.4696739e-07    388.00252    24.250157      596.475      5612306            0 
    2180   -1633215.4   -608.14157   -589.07451 -6.464516e-07    388.00252    24.250157      596.475      5612306            0 
    2190   -1633215.4   -608.14157   -589.07451 -6.4588009e-07    388.00252    24.250157      596.475      5612306            0 
    2200   -1633215.4   -608.14157   -589.07451 -6.4542196e-07    388.00252    24.250157      596.475      5612306            0 
    2210   -1633215.4   -608.14157   -589.07451 -6.4493959e-07    388.00252    24.250157      596.475      5612306            0 
    2220   -1633215.4   -608.14157   -589.07451 -6.4446338e-07    388.00252    24.250157      596.475      5612306            0 
    2230   -1633215.4   -608.14157   -589.07451 -6.4395951e-07    388.00252    24.250157      596.475      5612306            0 
    2240   -1633215.4   -608.14157   -589.07451 -6.435311e-07    388.00252    24.250157      596.475      5612306            0 
    2250   -1633215.4   -608.14157   -589.07451 -6.4305253e-07    388.00252    24.250157      596.475      5612306            0 
    2260   -1633215.4   -608.14157   -589.07451 -6.4261414e-07    388.00252    24.250157      596.475      5612306            0 
    2270   -1633215.4   -608.14157   -589.07451 -6.4215813e-07    388.00252    24.250157      596.475      5612306            0 
    2280   -1633215.4   -608.14157   -589.07451 -6.417595e-07    388.00252    24.250157      596.475      5612306            0 
    2290   -1633215.4   -608.14157   -589.07451 -6.4130954e-07    388.00252    24.250157      596.475      5612306            0 
    2300   -1633215.4   -608.14157   -589.07451 -6.4093062e-07    388.00252    24.250157      596.475      5612306            0 
    2310   -1633215.4   -608.14157   -589.07451 -6.4053089e-07    388.00252    24.250157      596.475      5612306            0 
    2320   -1633215.4   -608.14157   -589.07451 -6.4010525e-07    388.00252    24.250157      596.475      5612306            0 
    2330   -1633215.4   -608.14157   -589.07451 -6.3968488e-07    388.00252    24.250157      596.475      5612306            0 
    2340   -1633215.4   -608.14157   -589.07451 -6.3927224e-07    388.00252    24.250157      596.475      5612306            0 
    2350   -1633215.4   -608.14157   -589.07451 -6.3888555e-07    388.00252    24.250157      596.475      5612306            0 
    2360   -1633215.4   -608.14157   -589.07451 -6.3849479e-07    388.00252    24.250157      596.475      5612306            0 
    2370   -1633215.4   -608.14157   -589.07451 -6.3811323e-07    388.00252    24.250157      596.475      5612306            0 
    2380   -1633215.4   -608.14157   -589.07451 -6.3771105e-07    388.00252    24.250157      596.475      5612306            0 
    2390   -1633215.4   -608.14157   -589.07451 -6.3734779e-07    388.00252    24.250157      596.475      5612306            0 
    2400   -1633215.4   -608.14157   -589.07451 -6.3697552e-07    388.00252    24.250157      596.475      5612306            0 
    2410   -1633215.4   -608.14157   -589.07451 -6.3659605e-07    388.00252    24.250157      596.475      5612306            0 
    2420   -1633215.4   -608.14157   -589.07451 -6.3622342e-07    388.00252    24.250157      596.475      5612306            0 
    2430   -1633215.4   -608.14157   -589.07451 -6.3590119e-07    388.00252    24.250157      596.475      5612306            0 
    2440   -1633215.4   -608.14157   -589.07451 -6.3551629e-07    388.00252    24.250157      596.475      5612306            0 
    2450   -1633215.4   -608.14157   -589.07451 -6.3512407e-07    388.00252    24.250157      596.475      5612306            0 
    2460   -1633215.4   -608.14157   -589.07451 -6.3474437e-07    388.00252    24.250157      596.475      5612306            0 
    2470   -1633215.4   -608.14157   -589.07451 -6.3440682e-07    388.00252    24.250157      596.475      5612306            0 
    2480   -1633215.4   -608.14157   -589.07451 -6.3408268e-07    388.00252    24.250157      596.475      5612306            0 
    2490   -1633215.4   -608.14157   -589.07451 -6.3367419e-07    388.00252    24.250157      596.475      5612306            0 
    2500   -1633215.4   -608.14157   -589.07451 -6.3336048e-07    388.00252    24.250157      596.475      5612306            0 
    2510   -1633215.4   -608.14157   -589.07451 -6.330462e-07    388.00252    24.250157      596.475      5612306            0 
    2520   -1633215.4   -608.14157   -589.07451 -6.327176e-07    388.00252    24.250157      596.475      5612306            0 
    2530   -1633215.4   -608.14157   -589.07451 -6.3233281e-07    388.00252    24.250157      596.475      5612306            0 
    2540   -1633215.4   -608.14157   -589.07451 -6.3203479e-07    388.00252    24.250157      596.475      5612306            0 
    2550   -1633215.4   -608.14157   -589.07451 -6.3169145e-07    388.00252    24.250157      596.475      5612306            0 
    2560   -1633215.4   -608.14157   -589.07451 -6.3134357e-07    388.00252    24.250157      596.475      5612306            0 
    2570   -1633215.4   -608.14157   -589.07451 -6.3101735e-07    388.00252    24.250157      596.475      5612306            0 
    2580   -1633215.4   -608.14157   -589.07451 -6.3069006e-07    388.00252    24.250157      596.475      5612306            0 
    2590   -1633215.4   -608.14157   -589.07451 -6.3037363e-07    388.00252    24.250157      596.475      5612306            0 
    2600   -1633215.4   -608.14157   -589.07451 -6.3002528e-07    388.00252    24.250157      596.475      5612306            0 
    2610   -1633215.4   -608.14157   -589.07451 -6.2970434e-07    388.00252    24.250157      596.475      5612306            0 
    2620   -1633215.4   -608.14157   -589.07451 -6.2937335e-07    388.00252    24.250157      596.475      5612306            0 
    2630   -1633215.4   -608.14157   -589.07451 -6.2905766e-07    388.00252    24.250157      596.475      5612306            0 
    2640   -1633215.4   -608.14157   -589.07451 -6.2874188e-07    388.00252    24.250157      596.475      5612306            0 
    2650   -1633215.4   -608.14157   -589.07451 -6.2841851e-07    388.00252    24.250157      596.475      5612306            0 
    2660   -1633215.4   -608.14157   -589.07451 -6.2810142e-07    388.00252    24.250157      596.475      5612306            0 
    2670   -1633215.4   -608.14157   -589.07451 -6.2780556e-07    388.00252    24.250157      596.475      5612306            0 
    2680   -1633215.4   -608.14157   -589.07451 -6.2749577e-07    388.00252    24.250157      596.475      5612306            0 
    2690   -1633215.4   -608.14157   -589.07451 -6.2721718e-07    388.00252    24.250157      596.475      5612306            0 
    2700   -1633215.4   -608.14157   -589.07451 -6.2693185e-07    388.00252    24.250157      596.475      5612306            0 
    2710   -1633215.4   -608.14157   -589.07451 -6.2664587e-07    388.00252    24.250157      596.475      5612306            0 
    2720   -1633215.4   -608.14157   -589.07451 -6.2632047e-07    388.00252    24.250157      596.475      5612306            0 
    2730   -1633215.4   -608.14157   -589.07451 -6.2603257e-07    388.00252    24.250157      596.475      5612306            0 
    2740   -1633215.4   -608.14157   -589.07451 -6.2571413e-07    388.00252    24.250157      596.475      5612306            0 
    2750   -1633215.4   -608.14157   -589.07451 -6.2540468e-07    388.00252    24.250157      596.475      5612306            0 
    2760   -1633215.4   -608.14157   -589.07451 -6.2511563e-07    388.00252    24.250157      596.475      5612306            0 
    2770   -1633215.4   -608.14157   -589.07451 -6.2482705e-07    388.00252    24.250157      596.475      5612306            0 
    2780   -1633215.4   -608.14157   -589.07451 -6.2456003e-07    388.00252    24.250157      596.475      5612306            0 
    2790   -1633215.4   -608.14157   -589.07451 -6.2426939e-07    388.00252    24.250157      596.475      5612306            0 
    2800   -1633215.4   -608.14157   -589.07451 -6.2401015e-07    388.00252    24.250157      596.475      5612306            0 
    2810   -1633215.4   -608.14157   -589.07451 -6.2371601e-07    388.00252    24.250157      596.475      5612306            0 
    2820   -1633215.4   -608.14157   -589.07451 -6.2344398e-07    388.00252    24.250157      596.475      5612306            0 
    2830   -1633215.4   -608.14157   -589.07451 -6.2314509e-07    388.00252    24.250157      596.475      5612306            0 
    2840   -1633215.4   -608.14157   -589.07451 -6.2287161e-07    388.00252    24.250157      596.475      5612306            0 
    2850   -1633215.4   -608.14157   -589.07451 -6.2262096e-07    388.00252    24.250157      596.475      5612306            0 
    2860   -1633215.4   -608.14157   -589.07451 -6.2228912e-07    388.00252    24.250157      596.475      5612306            0 
    2870   -1633215.4   -608.14157   -589.07451 -6.2202836e-07    388.00252    24.250157      596.475      5612306            0 
    2880   -1633215.4   -608.14157   -589.07451 -6.2173926e-07    388.00252    24.250157      596.475      5612306            0 
    2890   -1633215.4   -608.14157   -589.07451 -6.2149489e-07    388.00252    24.250157      596.475      5612306            0 
    2900   -1633215.4   -608.14157   -589.07451 -6.2120729e-07    388.00252    24.250157      596.475      5612306            0 
    2910   -1633215.4   -608.14157   -589.07451 -6.2097234e-07    388.00252    24.250157      596.475      5612306            0 
    2920   -1633215.4   -608.14157   -589.07451 -6.2071868e-07    388.00252    24.250157      596.475      5612306            0 
    2930   -1633215.4   -608.14157   -589.07451 -6.2046103e-07    388.00252    24.250157      596.475      5612306            0 
    2940   -1633215.4   -608.14157   -589.07451 -6.2019701e-07    388.00252    24.250157      596.475      5612306            0 
    2950   -1633215.4   -608.14157   -589.07451 -6.1995024e-07    388.00252    24.250157      596.475      5612306            0 
    2960   -1633215.4   -608.14157   -589.07451 -6.1969064e-07    388.00252    24.250157      596.475      5612306            0 
    2970   -1633215.4   -608.14157   -589.07451 -6.1941626e-07    388.00252    24.250157      596.475      5612306            0 
    2980   -1633215.4   -608.14157   -589.07451 -6.1918052e-07    388.00252    24.250157      596.475      5612306            0 
    2990   -1633215.4   -608.14157   -589.07451 -6.1885796e-07    388.00252    24.250157      596.475      5612306            0 
    3000   -1633215.4   -608.14157   -589.07451 -6.1858799e-07    388.00252    24.250157      596.475      5612306            0 
    3010   -1633215.4   -608.14157   -589.07451 -6.1830863e-07    388.00252    24.250157      596.475      5612306            0 
    3020   -1633215.4   -608.14157   -589.07451 -6.1808005e-07    388.00252    24.250157      596.475      5612306            0 
    3030   -1633215.4   -608.14157   -589.07451 -6.1781392e-07    388.00252    24.250157      596.475      5612306            0 
    3040   -1633215.4   -608.14157   -589.07451 -6.1756691e-07    388.00252    24.250157      596.475      5612306            0 
    3050   -1633215.4   -608.14157   -589.07451 -6.1732443e-07    388.00252    24.250157      596.475      5612306            0 
    3060   -1633215.4   -608.14157   -589.07451 -6.1706988e-07    388.00252    24.250157      596.475      5612306            0 
    3070   -1633215.4   -608.14157   -589.07451 -6.1680603e-07    388.00252    24.250157      596.475      5612306            0 
    3080   -1633215.4   -608.14157   -589.07451 -6.1660574e-07    388.00252    24.250157      596.475      5612306            0 
    3090   -1633215.4   -608.14157   -589.07451 -6.1627244e-07    388.00252    24.250157      596.475      5612306            0 
    3100   -1633215.4   -608.14157   -589.07451 -6.1605376e-07    388.00252    24.250157      596.475      5612306            0 
    3110   -1633215.4   -608.14157   -589.07451 -6.157746e-07    388.00252    24.250157      596.475      5612306            0 
    3120   -1633215.4   -608.14157   -589.07451 -6.1555598e-07    388.00252    24.250157      596.475      5612306            0 
    3130   -1633215.4   -608.14157   -589.07451 -6.1532752e-07    388.00252    24.250157      596.475      5612306            0 
    3140   -1633215.4   -608.14157   -589.07451 -6.1505532e-07    388.00252    24.250157      596.475      5612306            0 
    3150   -1633215.4   -608.14157   -589.07451 -6.1481011e-07    388.00252    24.250157      596.475      5612306            0 
    3160   -1633215.4   -608.14157   -589.07451 -6.1454996e-07    388.00252    24.250157      596.475      5612306            0 
    3170   -1633215.4   -608.14157   -589.07451 -6.1434265e-07    388.00252    24.250157      596.475      5612306            0 
    3180   -1633215.4   -608.14157   -589.07451 -6.1411234e-07    388.00252    24.250157      596.475      5612306            0 
    3190   -1633215.4   -608.14157   -589.07451 -6.1385851e-07    388.00252    24.250157      596.475      5612306            0 
    3200   -1633215.4   -608.14157   -589.07451 -6.136016e-07    388.00252    24.250157      596.475      5612306            0 
    3210   -1633215.4   -608.14157   -589.07451 -6.1334933e-07    388.00252    24.250157      596.475      5612306            0 
    3220   -1633215.4   -608.14157   -589.07451 -6.1313477e-07    388.00252    24.250157      596.475      5612306            0 
    3230   -1633215.4   -608.14157   -589.07451 -6.1286725e-07    388.00252    24.250157      596.475      5612306            0 
    3240   -1633215.4   -608.14157   -589.07451 -6.1264147e-07    388.00252    24.250157      596.475      5612306            0 
    3250   -1633215.4   -608.14157   -589.07451 -6.124389e-07    388.00252    24.250157      596.475      5612306            0 
    3260   -1633215.4   -608.14157   -589.07451 -6.1217565e-07    388.00252    24.250157      596.475      5612306            0 
    3270   -1633215.4   -608.14157   -589.07451 -6.1192306e-07    388.00252    24.250157      596.475      5612306            0 
    3280   -1633215.4   -608.14157   -589.07451 -6.1172459e-07    388.00252    24.250157      596.475      5612306            0 
    3290   -1633215.4   -608.14157   -589.07451 -6.1149293e-07    388.00252    24.250157      596.475      5612306            0 
    3300   -1633215.4   -608.14157   -589.07451 -6.1125827e-07    388.00252    24.250157      596.475      5612306            0 
    3310   -1633215.4   -608.14157   -589.07451 -6.1101877e-07    388.00252    24.250157      596.475      5612306            0 
    3320   -1633215.4   -608.14157   -589.07451 -6.1080026e-07    388.00252    24.250157      596.475      5612306            0 
    3330   -1633215.4   -608.14157   -589.07451 -6.1058047e-07    388.00252    24.250157      596.475      5612306            0 
    3340   -1633215.4   -608.14157   -589.07451 -6.1035628e-07    388.00252    24.250157      596.475      5612306            0 
    3350   -1633215.4   -608.14157   -589.07451 -6.1011272e-07    388.00252    24.250157      596.475      5612306            0 
    3360   -1633215.4   -608.14157   -589.07451 -6.0989029e-07    388.00252    24.250157      596.475      5612306            0 
    3370   -1633215.4   -608.14157   -589.07451 -6.096384e-07    388.00252    24.250157      596.475      5612306            0 
    3380   -1633215.4   -608.14157   -589.07451 -6.0940161e-07    388.00252    24.250157      596.475      5612306            0 
    3390   -1633215.4   -608.14157   -589.07451 -6.0921625e-07    388.00252    24.250157      596.475      5612306            0 
    3400   -1633215.4   -608.14157   -589.07451 -6.0900485e-07    388.00252    24.250157      596.475      5612306            0 
    3410   -1633215.4   -608.14157   -589.07451 -6.0875504e-07    388.00252    24.250157      596.475      5612306            0 
    3420   -1633215.4   -608.14157   -589.07451 -6.0853966e-07    388.00252    24.250157      596.475      5612306            0 
    3430   -1633215.4   -608.14157   -589.07451 -6.0832201e-07    388.00252    24.250157      596.475      5612306            0 
    3440   -1633215.4   -608.14157   -589.07451 -6.0810829e-07    388.00252    24.250157      596.475      5612306            0 
    3450   -1633215.4   -608.14157   -589.07451 -6.0789253e-07    388.00252    24.250157      596.475      5612306            0 
    3460   -1633215.4   -608.14157   -589.07451 -6.0765426e-07    388.00252    24.250157      596.475      5612306            0 
    3470   -1633215.4   -608.14157   -589.07451 -6.0744099e-07    388.00252    24.250157      596.475      5612306            0 
    3480   -1633215.4   -608.14157   -589.07451 -6.0723295e-07    388.00252    24.250157      596.475      5612306            0 
    3490   -1633215.4   -608.14157   -589.07451 -6.0699722e-07    388.00252    24.250157      596.475      5612306            0 
    3500   -1633215.4   -608.14157   -589.07451 -6.0677978e-07    388.00252    24.250157      596.475      5612306            0 
    3510   -1633215.4   -608.14157   -589.07451 -6.065682e-07    388.00252    24.250157      596.475      5612306            0 
    3520   -1633215.4   -608.14157   -589.07451 -6.0631887e-07    388.00252    24.250157      596.475      5612306            0 
    3530   -1633215.4   -608.14157   -589.07451 -6.0611177e-07    388.00252    24.250157      596.475      5612306            0 
    3540   -1633215.4   -608.14157   -589.07451 -6.0592043e-07    388.00252    24.250157      596.475      5612306            0 
    3550   -1633215.4   -608.14157   -589.07451 -6.0570065e-07    388.00252    24.250157      596.475      5612306            0 
    3560   -1633215.4   -608.14157   -589.07451 -6.0548826e-07    388.00252    24.250157      596.475      5612306            0 
    3570   -1633215.4   -608.14157   -589.07451 -6.0527857e-07    388.00252    24.250157      596.475      5612306            0 
    3580   -1633215.4   -608.14157   -589.07451 -6.0509469e-07    388.00252    24.250157      596.475      5612306            0 
    3590   -1633215.4   -608.14157   -589.07451 -6.0489549e-07    388.00252    24.250157      596.475      5612306            0 
    3600   -1633215.4   -608.14157   -589.07451 -6.0468791e-07    388.00252    24.250157      596.475      5612306            0 
    3610   -1633215.4   -608.14157   -589.07451 -6.0446036e-07    388.00252    24.250157      596.475      5612306            0 
    3620   -1633215.4   -608.14157   -589.07451 -6.0427577e-07    388.00252    24.250157      596.475      5612306            0 
    3630   -1633215.4   -608.14157   -589.07451 -6.0405024e-07    388.00252    24.250157      596.475      5612306            0 
    3640   -1633215.4   -608.14157   -589.07451 -6.0384989e-07    388.00252    24.250157      596.475      5612306            0 
    3650   -1633215.4   -608.14157   -589.07451 -6.0362888e-07    388.00252    24.250157      596.475      5612306            0 
    3660   -1633215.4   -608.14157   -589.07451 -6.0338279e-07    388.00252    24.250157      596.475      5612306            0 
    3670   -1633215.4   -608.14157   -589.07451 -6.0319498e-07    388.00252    24.250157      596.475      5612306            0 
    3680   -1633215.4   -608.14157   -589.07451 -6.0298658e-07    388.00252    24.250157      596.475      5612306            0 
    3690   -1633215.4   -608.14157   -589.07451 -6.0278375e-07    388.00252    24.250157      596.475      5612306            0 
    3700   -1633215.4   -608.14157   -589.07451 -6.0260209e-07    388.00252    24.250157      596.475      5612306            0 
    3710   -1633215.4   -608.14157   -589.07451 -6.0238413e-07    388.00252    24.250157      596.475      5612306            0 
    3720   -1633215.4   -608.14157   -589.07451 -6.0217515e-07    388.00252    24.250157      596.475      5612306            0 
    3730   -1633215.4   -608.14157   -589.07451 -6.0196719e-07    388.00252    24.250157      596.475      5612306            0 
    3740   -1633215.4   -608.14157   -589.07451 -6.0177087e-07    388.00252    24.250157      596.475      5612306            0 
    3750   -1633215.4   -608.14157   -589.07451 -6.0155516e-07    388.00252    24.250157      596.475      5612306            0 
    3760   -1633215.4   -608.14157   -589.07451 -6.0133621e-07    388.00252    24.250157      596.475      5612306            0 
    3770   -1633215.4   -608.14157   -589.07451 -6.0120063e-07    388.00252    24.250157      596.475      5612306            0 
    3780   -1633215.4   -608.14157   -589.07451 -6.009588e-07    388.00252    24.250157      596.475      5612306            0 
    3790   -1633215.4   -608.14157   -589.07451 -6.0079052e-07    388.00252    24.250157      596.475      5612306            0 
    3800   -1633215.4   -608.14157   -589.07451 -6.0055842e-07    388.00252    24.250157      596.475      5612306            0 
    3810   -1633215.4   -608.14157   -589.07451 -6.0035246e-07    388.00252    24.250157      596.475      5612306            0 
    3820   -1633215.4   -608.14157   -589.07451 -6.0015583e-07    388.00252    24.250157      596.475      5612306            0 
    3830   -1633215.4   -608.14157   -589.07451 -5.9997103e-07    388.00252    24.250157      596.475      5612306            0 
    3840   -1633215.4   -608.14157   -589.07451 -5.9977262e-07    388.00252    24.250157      596.475      5612306            0 
    3850   -1633215.4   -608.14157   -589.07451 -5.9952309e-07    388.00252    24.250157      596.475      5612306            0 
    3860   -1633215.4   -608.14157   -589.07451 -5.9934833e-07    388.00252    24.250157      596.475      5612306            0 
    3870   -1633215.4   -608.14157   -589.07451 -5.9916483e-07    388.00252    24.250157      596.475      5612306            0 
    3880   -1633215.4   -608.14157   -589.07451 -5.9896047e-07    388.00252    24.250157      596.475      5612306            0 
    3890   -1633215.4   -608.14157   -589.07451 -5.9877353e-07    388.00252    24.250157      596.475      5612306            0 
    3900   -1633215.4   -608.14157   -589.07451 -5.9856116e-07    388.00252    24.250157      596.475      5612306            0 
    3910   -1633215.4   -608.14157   -589.07451 -5.9835586e-07    388.00252    24.250157      596.475      5612306            0 
    3920   -1633215.4   -608.14157   -589.07451 -5.9817632e-07    388.00252    24.250157      596.475      5612306            0 
    3930   -1633215.4   -608.14157   -589.07451 -5.9800784e-07    388.00252    24.250157      596.475      5612306            0 
    3940   -1633215.4   -608.14157   -589.07451 -5.9781541e-07    388.00252    24.250157      596.475      5612306            0 
    3950   -1633215.4   -608.14157   -589.07451 -5.9761461e-07    388.00252    24.250157      596.475      5612306            0 
    3960   -1633215.4   -608.14157   -589.07451 -5.974266e-07    388.00252    24.250157      596.475      5612306            0 
    3970   -1633215.4   -608.14157   -589.07451 -5.9724109e-07    388.00252    24.250157      596.475      5612306            0 
    3980   -1633215.4   -608.14157   -589.07451 -5.9703075e-07    388.00252    24.250157      596.475      5612306            0 
    3990   -1633215.4   -608.14157   -589.07451 -5.9682035e-07    388.00252    24.250157      596.475      5612306            0 
    4000   -1633215.4   -608.14157   -589.07451 -5.9663931e-07    388.00252    24.250157      596.475      5612306            0 
    4010   -1633215.4   -608.14157   -589.07451 -5.9644852e-07    388.00252    24.250157      596.475      5612306            0 
    4020   -1633215.4   -608.14157   -589.07451 -5.962456e-07    388.00252    24.250157      596.475      5612306            0 
    4030   -1633215.4   -608.14157   -589.07451 -5.9607357e-07    388.00252    24.250157      596.475      5612306            0 
    4040   -1633215.4   -608.14157   -589.07451 -5.9583744e-07    388.00252    24.250157      596.475      5612306            0 
    4050   -1633215.4   -608.14157   -589.07451 -5.9570347e-07    388.00252    24.250157      596.475      5612306            0 
    4060   -1633215.4   -608.14157   -589.07451 -5.9549327e-07    388.00252    24.250157      596.475      5612306            0 
    4070   -1633215.4   -608.14157   -589.07451 -5.9530803e-07    388.00252    24.250157      596.475      5612306            0 
    4080   -1633215.4   -608.14157   -589.07451 -5.9513035e-07    388.00252    24.250157      596.475      5612306            0 
    4090   -1633215.4   -608.14157   -589.07451 -5.9492965e-07    388.00252    24.250157      596.475      5612306            0 
    4100   -1633215.4   -608.14157   -589.07451 -5.9475126e-07    388.00252    24.250157      596.475      5612306            0 
    4110   -1633215.4   -608.14157   -589.07451 -5.9458403e-07    388.00252    24.250157      596.475      5612306            0 
    4120   -1633215.4   -608.14157   -589.07451 -5.9439862e-07    388.00252    24.250157      596.475      5612306            0 
    4130   -1633215.4   -608.14157   -589.07451 -5.9421596e-07    388.00252    24.250157      596.475      5612306            0 
    4140   -1633215.4   -608.14157   -589.07451 -5.9405627e-07    388.00252    24.250157      596.475      5612306            0 
    4150   -1633215.4   -608.14157   -589.07451 -5.938546e-07    388.00252    24.250157      596.475      5612306            0 
    4160   -1633215.4   -608.14157   -589.07451 -5.9363447e-07    388.00252    24.250157      596.475      5612306            0 
    4170   -1633215.4   -608.14157   -589.07451 -5.9347602e-07    388.00252    24.250157      596.475      5612306            0 
    4180   -1633215.4   -608.14157   -589.07451 -5.9328292e-07    388.00252    24.250157      596.475      5612306            0 
    4190   -1633215.4   -608.14157   -589.07451 -5.9311766e-07    388.00252    24.250157      596.475      5612306            0 
    4200   -1633215.4   -608.14157   -589.07451 -5.92939e-07    388.00252    24.250157      596.475      5612306            0 
    4210   -1633215.4   -608.14157   -589.07451 -5.9278478e-07    388.00252    24.250157      596.475      5612306            0 
    4220   -1633215.4   -608.14157   -589.07451 -5.9258153e-07    388.00252    24.250157      596.475      5612306            0 
    4230   -1633215.4   -608.14157   -589.07451 -5.9242204e-07    388.00252    24.250157      596.475      5612306            0 
    4240   -1633215.4   -608.14157   -589.07451 -5.9221898e-07    388.00252    24.250157      596.475      5612306            0 
    4250   -1633215.4   -608.14157   -589.07451 -5.9205606e-07    388.00252    24.250157      596.475      5612306            0 
    4260   -1633215.4   -608.14157   -589.07451 -5.9183526e-07    388.00252    24.250157      596.475      5612306            0 
    4270   -1633215.4   -608.14157   -589.07451 -5.9167547e-07    388.00252    24.250157      596.475      5612306            0 
    4280   -1633215.4   -608.14157   -589.07451 -5.9151198e-07    388.00252    24.250157      596.475      5612306            0 
    4290   -1633215.4   -608.14157   -589.07451 -5.913365e-07    388.00252    24.250157      596.475      5612306            0 
    4300   -1633215.4   -608.14157   -589.07451 -5.9113389e-07    388.00252    24.250157      596.475      5612306            0 
    4310   -1633215.4   -608.14157   -589.07451 -5.909597e-07    388.00252    24.250157      596.475      5612306            0 
    4320   -1633215.4   -608.14157   -589.07451 -5.908087e-07    388.00252    24.250157      596.475      5612306            0 
    4330   -1633215.4   -608.14157   -589.07451 -5.9062984e-07    388.00252    24.250157      596.475      5612306            0 
    4340   -1633215.4   -608.14157   -589.07451 -5.9046218e-07    388.00252    24.250157      596.475      5612306            0 
    4350   -1633215.4   -608.14157   -589.07451 -5.9031664e-07    388.00252    24.250157      596.475      5612306            0 
    4360   -1633215.4   -608.14157   -589.07451 -5.900989e-07    388.00252    24.250157      596.475      5612306            0 
    4370   -1633215.4   -608.14157   -589.07451 -5.8989987e-07    388.00252    24.250157      596.475      5612306            0 
    4380   -1633215.4   -608.14157   -589.07451 -5.8972772e-07    388.00252    24.250157      596.475      5612306            0 
    4390   -1633215.4   -608.14157   -589.07451 -5.8961374e-07    388.00252    24.250157      596.475      5612306            0 
    4400   -1633215.4   -608.14157   -589.07451 -5.894128e-07    388.00252    24.250157      596.475      5612306            0 
    4410   -1633215.4   -608.14157   -589.07451 -5.8926118e-07    388.00252    24.250157      596.475      5612306            0 
    4420   -1633215.4   -608.14157   -589.07451 -5.8907767e-07    388.00252    24.250157      596.475      5612306            0 
    4430   -1633215.4   -608.14157   -589.07451 -5.8893489e-07    388.00252    24.250157      596.475      5612306            0 
    4440   -1633215.4   -608.14157   -589.07451 -5.8872394e-07    388.00252    24.250157      596.475      5612306            0 
    4450   -1633215.4   -608.14157   -589.07451 -5.8853541e-07    388.00252    24.250157      596.475      5612306            0 
    4460   -1633215.4   -608.14157   -589.07451 -5.8839897e-07    388.00252    24.250157      596.475      5612306            0 
    4470   -1633215.4   -608.14157   -589.07451 -5.8818736e-07    388.00252    24.250157      596.475      5612306            0 
    4480   -1633215.4   -608.14157   -589.07451 -5.8803677e-07    388.00252    24.250157      596.475      5612306            0 
    4490   -1633215.4   -608.14157   -589.07451 -5.8788799e-07    388.00252    24.250157      596.475      5612306            0 
    4500   -1633215.4   -608.14157   -589.07451 -5.8769726e-07    388.00252    24.250157      596.475      5612306            0 
    4510   -1633215.4   -608.14157   -589.07451 -5.8754682e-07    388.00252    24.250157      596.475      5612306            0 
    4520   -1633215.4   -608.14157   -589.07451 -5.873642e-07    388.00252    24.250157      596.475      5612306            0 
    4530   -1633215.4   -608.14157   -589.07451 -5.8719727e-07    388.00252    24.250157      596.475      5612306            0 
    4540   -1633215.4   -608.14157   -589.07451 -5.8702456e-07    388.00252    24.250157      596.475      5612306            0 
    4550   -1633215.4   -608.14157   -589.07451 -5.8688131e-07    388.00252    24.250157      596.475      5612306            0 
    4560   -1633215.4   -608.14157   -589.07451 -5.8670245e-07    388.00252    24.250157      596.475      5612306            0 
    4570   -1633215.4   -608.14157   -589.07451 -5.8654967e-07    388.00252    24.250157      596.475      5612306            0 
    4580   -1633215.4   -608.14157   -589.07451 -5.8640462e-07    388.00252    24.250157      596.475      5612306            0 
    4590   -1633215.4   -608.14157   -589.07451 -5.8622216e-07    388.00252    24.250157      596.475      5612306            0 
    4600   -1633215.4   -608.14157   -589.07451 -5.86045e-07    388.00252    24.250157      596.475      5612306            0 
    4610   -1633215.4   -608.14157   -589.07451 -5.85869e-07    388.00252    24.250157      596.475      5612306            0 
    4620   -1633215.4   -608.14157   -589.07451 -5.8575468e-07    388.00252    24.250157      596.475      5612306            0 
    4630   -1633215.4   -608.14157   -589.07451 -5.8554044e-07    388.00252    24.250157      596.475      5612306            0 
    4640   -1633215.4   -608.14157   -589.07451 -5.8539707e-07    388.00252    24.250157      596.475      5612306            0 
    4650   -1633215.4   -608.14157   -589.07451 -5.8523828e-07    388.00252    24.250157      596.475      5612306            0 
    4660   -1633215.4   -608.14157   -589.07451 -5.8503267e-07    388.00252    24.250157      596.475      5612306            0 
    4670   -1633215.4   -608.14157   -589.07451 -5.8488771e-07    388.00252    24.250157      596.475      5612306            0 
    4680   -1633215.4   -608.14157   -589.07451 -5.8472794e-07    388.00252    24.250157      596.475      5612306            0 
    4690   -1633215.4   -608.14157   -589.07451 -5.8456292e-07    388.00252    24.250157      596.475      5612306            0 
    4700   -1633215.4   -608.14157   -589.07451 -5.8438227e-07    388.00252    24.250157      596.475      5612306            0 
    4710   -1633215.4   -608.14157   -589.07451 -5.8421237e-07    388.00252    24.250157      596.475      5612306            0 
    4720   -1633215.4   -608.14157   -589.07451 -5.8406056e-07    388.00252    24.250157      596.475      5612306            0 
    4730   -1633215.4   -608.14157   -589.07451 -5.8392989e-07    388.00252    24.250157      596.475      5612306            0 
    4740   -1633215.4   -608.14157   -589.07451 -5.8373299e-07    388.00252    24.250157      596.475      5612306            0 
    4750   -1633215.4   -608.14157   -589.07451 -5.836002e-07    388.00252    24.250157      596.475      5612306            0 
    4760   -1633215.4   -608.14157   -589.07451 -5.8340068e-07    388.00252    24.250157      596.475      5612306            0 
    4770   -1633215.4   -608.14157   -589.07451 -5.8326188e-07    388.00252    24.250157      596.475      5612306            0 
    4780   -1633215.4   -608.14157   -589.07451 -5.830968e-07    388.00252    24.250157      596.475      5612306            0 
    4790   -1633215.4   -608.14157   -589.07451 -5.8293942e-07    388.00252    24.250157      596.475      5612306            0 
    4800   -1633215.4   -608.14157   -589.07451 -5.8278794e-07    388.00252    24.250157      596.475      5612306            0 
    4810   -1633215.4   -608.14157   -589.07451 -5.8259801e-07    388.00252    24.250157      596.475      5612306            0 
    4820   -1633215.4   -608.14157   -589.07451 -5.8244701e-07    388.00252    24.250157      596.475      5612306            0 
    4830   -1633215.4   -608.14157   -589.07451 -5.8228171e-07    388.00252    24.250157      596.475      5612306            0 
    4840   -1633215.4   -608.14157   -589.07451 -5.8214043e-07    388.00252    24.250157      596.475      5612306            0 
    4850   -1633215.4   -608.14157   -589.07451 -5.8198481e-07    388.00252    24.250157      596.475      5612306            0 
    4860   -1633215.4   -608.14157   -589.07451 -5.8177492e-07    388.00252    24.250157      596.475      5612306            0 
    4870   -1633215.4   -608.14157   -589.07451 -5.8161532e-07    388.00252    24.250157      596.475      5612306            0 
    4880   -1633215.4   -608.14157   -589.07451 -5.8151563e-07    388.00252    24.250157      596.475      5612306            0 
    4890   -1633215.4   -608.14157   -589.07451 -5.813328e-07    388.00252    24.250157      596.475      5612306            0 
    4900   -1633215.4   -608.14157   -589.07451 -5.8124745e-07    388.00252    24.250157      596.475      5612306            0 
    4910   -1633215.4   -608.14157   -589.07451 -5.8106613e-07    388.00252    24.250157      596.475      5612306            0 
    4920   -1633215.4   -608.14157   -589.07451 -5.8091015e-07    388.00252    24.250157      596.475      5612306            0 
    4930   -1633215.4   -608.14157   -589.07451 -5.8073318e-07    388.00252    24.250157      596.475      5612306            0 
    4940   -1633215.4   -608.14157   -589.07451 -5.8059402e-07    388.00252    24.250157      596.475      5612306            0 
    4950   -1633215.4   -608.14157   -589.07451 -5.8041264e-07    388.00252    24.250157      596.475      5612306            0 
    4960   -1633215.4   -608.14157   -589.07451 -5.8026689e-07    388.00252    24.250157      596.475      5612306            0 
    4970   -1633215.4   -608.14157   -589.07451 -5.8012679e-07    388.00252    24.250157      596.475      5612306            0 
    4980   -1633215.4   -608.14157   -589.07451 -5.7995478e-07    388.00252    24.250157      596.475      5612306            0 
    4990   -1633215.4   -608.14157   -589.07451 -5.7981467e-07    388.00252    24.250157      596.475      5612306            0 
    5000   -1633215.4   -608.14157   -589.07451 -5.7966196e-07    388.00252    24.250157      596.475      5612306            0 
Loop time of 70.3902 on 512 procs for 5000 steps with 461920 atoms

99.9% CPU use with 512 MPI tasks x no OpenMP threads

Minimization stats:
  Stopping criterion = max force evaluations
  Energy initial, next-to-last, final = 
         -1633193.5057     -1633215.39326     -1633215.39326
  Force two-norm initial, final = 13.1117 7.19386e-11
  Force max component initial, final = 0.261533 5.81554e-13
  Final line search alpha, max atom move = 1 5.81554e-13
  Iterations, force evaluations = 5000 10000

MPI task timing breakdown:
Section |  min time  |  avg time  |  max time  |%varavg| %total
---------------------------------------------------------------
Pair    | 18.917     | 44.168     | 48.618     |  69.8 | 62.75
Neigh   | 0          | 0          | 0          |   0.0 |  0.00
Comm    | 5.3712     | 9.4097     | 32.423     | 139.3 | 13.37
Output  | 0.10348    | 0.11538    | 0.13016    |   1.4 |  0.16
Modify  | 0          | 0          | 0          |   0.0 |  0.00
Other   |            | 16.7       |            |       | 23.72

Nlocal:    902.188 ave 1023 max 87 min
Histogram: 16 0 0 0 0 0 0 0 315 181
Nghost:    3453.52 ave 3700 max 2303 min
Histogram: 16 0 29 3 0 0 0 55 166 243
Neighs:    62812.8 ave 72590 max 1049 min
Histogram: 16 0 0 0 0 0 0 6 322 168

Total # of neighbors = 32160134
Ave neighs/atom = 69.6227
Neighbor list builds = 0
Dangerous builds = 0
write_data NPT_relaxed.data
Neighbor list info ...
  1 neighbor list requests
  update every 1 steps, delay 10 steps, check yes
  max neighbors/atom: 2000, page size: 100000
  master list distance cutoff = 7.50679
  ghost atom cutoff = 7.50679
  binsize = 3.75339 -> bins = 104 7 159

#reset_timestep 0
#timestep       0.002

# -------------------- Run MD NVT equilibration -------------------------
#dump          1 all custom 100 dump.atom id type x y z
#dump          2 all cfg 100 cfg/*.cfg mass type xs ys zs
#dump_modify   2 element Al


velocity       all create 300.0 4928459 mom yes rot yes dist gaussian

fix             1 all npt temp 300 300 0.1 iso 0.0 0.0 2
run      10000
Memory usage per processor = 2.87626 Mbytes
Step PotEng Pxx Pyy Pzz Lx Ly Lz Volume Temp 
    5000   -1633215.4    2798.7531    2824.8605    3406.2285    388.00252    24.250157      596.475      5612306          300 
    5010   -1631319.2    4132.5735    4161.5173    4739.7252    388.00712    24.250445    596.48208    5612505.9    268.29629 
    5020   -1626639.8    7342.9176    7376.3915    7948.3778    388.02454    24.251534    596.50886    5613261.8    190.39262 
    5030   -1621705.8     10408.23    10444.876    11008.699    388.06329    24.253956    596.56843    5614943.7    108.21453 
    5040   -1619059.4    11325.565    11360.575    11916.718    388.13059    24.258162    596.67189    5617865.5    64.064597 
    5050   -1619484.7    9588.9696     9615.394    10167.787     388.2247    24.264044    596.81657    5621953.1    71.204361 
    5060   -1621677.7    6473.1063    6484.8829     7039.483    388.33166    24.270729    596.98099    5626600.9    108.24148 
    5070   -1623674.1    3811.6596     3806.527    4367.6502    388.43277    24.277048    597.13643    5630997.2    142.46753 
    5080   -1624383.6    2586.5805    2566.9508    3134.9955    388.51734    24.282334    597.26643    5634675.8    155.44727 
    5090   -1624013.3     2509.834    2481.9301    3053.9432    388.58599    24.286624    597.37197    5637663.3    150.43084 
    5100   -1623516.1    2588.2238    2560.3851    3132.2579    388.64451    24.290282    597.46194      5640211    143.27861 
    5110   -1623687.7    2017.5357    1997.3204    2566.6532     388.6977    24.293607    597.54371    5642527.1    147.35278 
    5120   -1624555.2    760.05416    750.46391    1318.9665    388.74694    24.296684     597.6194    5644671.4    163.19636 
    5130   -1625447.9   -535.59409   -538.00747    35.129883    388.79085    24.299428    597.68691    5646584.6    179.61136 
    5140   -1625601.6   -1120.7897   -1123.5421   -540.42062    388.82765    24.301728    597.74348    5648188.1    183.73609 
    5150   -1624771.3   -746.12522   -755.29733   -161.28785    388.85723    24.303577    597.78895    5649477.3    171.36319 
    5160   -1623425.2    151.75395    136.12059    736.35425    388.88171    24.305107    597.82658      5650544    150.26487 
    5170   -1622419.3     776.1372    759.99646    1359.1274    388.90409    24.306506    597.86098    5651519.7    134.75672 
    5180   -1622367.3    566.89245    557.34594    1149.8191    388.92626    24.307891    597.89507    5652486.4    135.18939 
    5190   -1623178.5   -383.07462   -383.08905    200.98813    388.94774    24.309234    597.92809    5653422.9    150.17031 
    5200   -1624155.3   -1426.6754   -1420.1293   -843.80503    388.96622    24.310389    597.95649    5654228.7    168.07419 
    5210   -1624552.8   -1880.4101   -1874.4452   -1305.1193    388.97941    24.311213    597.97677    5654803.9    176.37263 
    5220   -1624118.6    -1526.156   -1528.3743   -965.81362    388.98676    24.311672    597.98807    5655124.5    170.74868 
    5230   -1623226.2   -730.02854   -744.07545   -187.80157     388.9898    24.311862    597.99275    5655257.2    157.39332 
    5240   -1622552.8   -130.60111   -153.53323    397.60136    388.99099    24.311937    597.99458    5655309.1     147.6396 
    5250   -1622555.6   -149.05163   -172.38756    374.43908    388.99202    24.312002    597.99617    5655354.2    149.20106 
    5260   -1623145.6   -694.49849   -708.07803   -166.24455    388.99288    24.312055    597.99748    5655391.5    160.66448 
    5270     -1623805   -1279.3257   -1276.1371   -741.06387     388.9922    24.312012    597.99643    5655361.7    173.39325 
    5280   -1624018.3   -1421.4756   -1401.1443   -873.95197    388.98867    24.311792    597.99101    5655207.7    178.71274 
    5290   -1623650.2   -1001.0207   -969.50728   -449.76842    388.98222    24.311388    597.98109    5654926.4    174.29611 
    5300   -1623007.5   -316.08641   -281.85132    231.39765    388.97421    24.310888    597.96878    5654577.2    165.24342 
    5310   -1622573.4    172.88467    202.99071    710.15116    388.96654    24.310409    597.95699    5654242.9    159.64901 
    5320     -1622626    201.30746    223.75817    726.02446    388.96044    24.310027    597.94761    5653976.7    162.21358 
    5330   -1623036.5    -115.4526   -101.57628    400.80518    388.95583     24.30974    597.94053    5653775.9    170.82914 
    5340   -1623398.9   -403.80893    -398.7025    113.94186    388.95179    24.309487    597.93431    5653599.5     178.7045 
    5350   -1623364.4   -341.93138   -346.78117     189.2817    388.94753    24.309221    597.92777    5653413.9    179.96527 
    5360   -1622905.5    95.716277    78.313907     649.8022    388.94326    24.308954    597.92121    5653227.8    174.10207 
    5370   -1622321.2      634.546     602.5088    1215.9601    388.94014    24.308758     597.9164    5653091.4    166.10226 
    5380   -1622002.1    919.98445    874.97556    1527.8341    388.93946    24.308716    597.91536    5653061.9     162.5148 
    5390   -1622136.6    785.58658    734.02555    1413.0623     388.9418    24.308862    597.91895    5653163.8     166.5425 
    5400   -1622584.9    364.35906    315.26885    998.67402    388.94657    24.309161     597.9263    5653372.1    175.88837 
    5410   -1623003.1   -29.697717   -67.241519      595.865    388.95253    24.309533    597.93545    5653631.7    184.80099 
    5420   -1623099.6   -137.82361   -157.43594    465.78058    388.95855    24.309909    597.94471    5653894.3    188.36284 
    5430   -1622823.6    74.025738     71.98391    648.50661    388.96435    24.310272    597.95362    5654147.2    185.68417 
    5440   -1622369.8    419.59839    426.16088    965.49596    388.97048    24.310655    597.96305    5654414.7      180.003 
    5450     -1622019    644.71098    646.58562    1171.1662    388.97781    24.311113    597.97431    5654734.1     176.0236 
    5460   -1621938.5    607.76634    595.65943    1131.4558     388.9868    24.311675    597.98814    5655126.5     176.5754 
    5470     -1622086    360.39586    335.08129      900.524    388.99724    24.312327    598.00419    5655581.7    180.97465 
    5480   -1622272.4    82.118986    54.008952    653.00993    389.00837    24.313023     598.0213    5656067.3    186.06886 
    5490   -1622318.6   -64.464945    -81.72898    540.79859    389.01944    24.313715    598.03832    5656550.2    188.84232 
    5500   -1622175.9   -40.677728   -38.924711     589.9502     389.0301    24.314381     598.0547    5657015.1    188.45918 
    5510   -1621933.7    67.765952    86.587633    705.46316    389.04046    24.315029    598.07063      5657467    186.40289 
    5520     -1621729    136.93581    164.35723    762.01166    389.05084    24.315677    598.08658    5657919.8    184.97162 
    5530     -1621642    99.692619    128.82603    698.52294     389.0614    24.316338    598.10283    5658380.8    185.51792 
    5540   -1621654.8   -20.436435    10.802968    547.42159    389.07202    24.317001    598.11915    5658844.1    187.75385 
    5550     -1621689    -147.7938   -106.69145    391.83141    389.08235    24.317647    598.13502    5659294.6    190.37156 
    5560   -1621675.6   -219.94143   -159.45399    297.48802    389.09205    24.318253    598.14994      5659718    192.20957 
    5570   -1621600.7   -227.35683    -144.2338    272.71207    389.10097    24.318811    598.16365    5660107.4     193.0277 
    5580   -1621502.3   -206.08374   -108.48628     278.4271    389.10915    24.319322    598.17623    5660464.4    193.45877 
    5590   -1621429.6   -199.10853   -105.52604     270.5568     389.1167    24.319794    598.18783    5660793.6    194.32913 
    5600   -1621400.8    -220.9095   -153.26241    237.08975    389.12365    24.320228    598.19851      5661097    195.94817 
    5610   -1621391.8   -251.01942   -225.45962    202.24565    389.12997    24.320623    598.20823    5661372.7    197.91279 
    5620     -1621359   -255.69009   -276.23915    200.95172    389.13558    24.320974    598.21686    5661617.8    199.49207 
    5630   -1621273.3   -215.35951     -273.698    249.83545     389.1405    24.321281    598.22442    5661832.5    200.19477 
    5640   -1621138.3   -137.25932   -217.08451    337.01586    389.14486    24.321554    598.23112    5662022.8    200.07355 
    5650   -1620984.5   -48.403158    -131.0831    432.50665     389.1489    24.321806    598.23734    5662199.3    199.64034 
    5660     -1620852    21.262922   -49.796702    505.60061     389.1529    24.322056    598.24348    5662373.7    199.56694 
    5670   -1620772.4    52.395823   -2.8062449    536.89825    389.15705    24.322316    598.24986      5662555    200.38955 
    5680   -1620757.3    40.580546   -5.1400034    522.32762    389.16145    24.322591    598.25663    5662747.2    202.30476 
    5690     -1620792   -5.2274305   -50.413325     473.7243    389.16607    24.322879    598.26372    5662948.5    205.07106 
    5700   -1620838.9   -65.102665   -110.35483    417.38943    389.17075    24.323172    598.27093    5663153.1    208.05927 
    5710   -1620850.9   -111.41761   -145.11686     387.1657    389.17535     24.32346      598.278      5663354    210.47481 
    5720   -1620791.9   -117.50918   -123.72078    410.74673    389.17978    24.323736    598.28481    5663547.4    211.70652 
    5730   -1620656.8   -72.278675   -43.819235    493.47107    389.18409    24.324006    598.29143    5663735.5    211.66418 
    5740     -1620477    9.4923058    64.477449    611.16099    389.18848     24.32428    598.29818    5663927.1     210.8721 
    5750   -1620304.2     92.57024    154.98163    720.93759    389.19322    24.324576    598.30547      5664134    210.19831 
    5760   -1620182.8    140.96775    191.71236    783.89717    389.19855    24.324909    598.31365    5664366.5    210.39047 
    5770   -1620128.6    137.51128    168.94295    784.47037    389.20455    24.325285    598.32289    5664628.9    211.71681 
    5780     -1620124    91.240896    112.97707    736.10105    389.21118    24.325699    598.33308    5664918.3    213.88812 
    5790   -1620131.4    30.605537    64.545592    670.68425    389.21826    24.326141    598.34396    5665227.5    216.27236 
    5800   -1620114.4   -12.483325     53.48404    618.41276    389.22561    24.326601    598.35526    5665548.3    218.25495 
    5810   -1620055.1   -19.399838    82.303202    591.58168    389.23311     24.32707     598.3668      5665876    219.53324 
    5820   -1619959.5    7.8313281    128.20153    582.84378    389.24076    24.327547    598.37855    5666209.8    220.20511 
    5830   -1619849.3    52.129849    159.31495    576.00206    389.24859    24.328037    598.39059    5666551.8     220.6334 
    5840   -1619747.1     93.22871    154.00819    559.90101    389.25666    24.328541    598.40299    5666904.1    221.19874 
    5850   -1619664.7    116.96269    111.40479    536.03866    389.26496     24.32906    598.41575    5667266.8    222.10284 
[...]
  999000    389.66481    306.74314    276.65637    62.636681    322.08822    2.2071155    13.712261   -34.472845   -192.46868    13.666627   -34.576214    2.2691053    13.589521   -24.471574   -192.45297    13.575706   -24.803442            0            0            0  -0.69201547    13.956342   -304.54185 
  999100    389.66481    312.64718    366.45563    163.77254    322.00577    2.2068731    13.686111   -34.481234   -192.45903    13.704258   -34.582973    2.2774182      13.5575   -24.485364   -192.44303    13.621048    -24.79816            0            0            0  -0.69205732    13.956566   -304.54339 
  999200    389.66481    339.03866    343.02446    150.14779     322.6632    2.2032822    13.703047   -34.488981   -192.48022    13.746366   -34.580217    2.2788681    13.579143   -24.485947   -192.45068    13.651679   -24.785518            0            0            0  -0.69209916    13.956791   -304.54493 
  999300    389.66481    382.73513    340.65024    174.74426    322.06412    2.1924019    13.710012   -34.480478    -192.4663    13.794816    -34.54916    2.2790692    13.595033   -24.492865   -192.42529    13.691163   -24.736359            0            0            0    -0.692141    13.957015   -304.54647 
  999400    389.66481    328.98389    289.73006    156.35797    322.49026    2.1751446    13.702925   -34.479254   -192.47445    13.818954    -34.53295     2.265037    13.597206    -24.49395   -192.44025    13.731521   -24.708484            0            0            0  -0.69218285    13.957239   -304.54801 
  999500    389.66481     335.6492    328.69045    168.21806    322.01066    2.1924205    13.725225   -34.484827   -192.45573    13.813237   -34.551362    2.2733924    13.611609   -24.497669   -192.42241    13.759966   -24.728435            0            0            0  -0.69222469    13.957464   -304.54955 
  999600    389.66481    289.65502    281.37256    90.717229     322.3497    2.1924789    13.735858   -34.470229   -192.48091    13.830405   -34.557999    2.2505472    13.625922   -24.489875   -192.46175    13.814362   -24.737895            0            0            0  -0.69226654    13.957688   -304.55109 
  999700    389.66481    262.09602    252.94588     18.90795    322.32375     2.170382     13.78378   -34.488471   -192.49215       13.832   -34.564382    2.2254101     13.69848   -24.507517   -192.47877    13.790695   -24.728019            0            0            0  -0.69230838    13.957912   -304.55263 
  999800    389.66481    246.38284     298.5784    3.3963738    322.44203    2.1720157    13.803721   -34.512479   -192.49163    13.826815   -34.572899    2.2090198     13.70103   -24.532442   -192.47336    13.784284   -24.736077            0            0            0  -0.69235022    13.958136   -304.55417 
  999900    389.66481    245.75957    254.24054    50.255389    322.57311    2.1983089    13.814452   -34.516476    -192.5077    13.822663   -34.555432    2.2316928     13.71116   -24.540518    -192.4939    13.756876    -24.72672            0            0            0  -0.69239207    13.958361   -304.55571 
 1000000    389.66481    222.82367    325.42605    64.364763    322.45631    2.1781859    13.824873   -34.543765   -192.51031    13.875919   -34.510635    2.2252021    13.713094   -24.566247   -192.51296    13.806479   -24.712692            0            0            0  -0.69243391    13.958585   -304.55725 
 1000100    389.66481    284.80711    232.57508    20.220208    322.72372    2.1453108    13.829382   -34.549421   -192.49574    13.904485    -34.47974    2.2056973     13.73783   -24.582668   -192.48106    13.807474   -24.661112            0            0            0  -0.69247575    13.958809   -304.55879 
 1000200    389.66481    222.09801    282.36118    33.633844    322.14749    2.1431407    13.843068   -34.570536   -192.48373    13.906007   -34.473506    2.2185212    13.762693   -24.604592   -192.44226    13.794996     -24.6581            0            0            0   -0.6925176    13.959034   -304.56033 
 1000300    389.66481    265.20947    289.64838    38.615386    322.27525    2.1587777    13.869604   -34.591059   -192.48668    13.946253   -34.495472    2.2469172    13.752378   -24.647425    -192.4648    13.855583   -24.684852            0            0            0  -0.69255944    13.959258   -304.56187 
 1000400    389.66481    237.81864     260.2645    64.682609    322.80922    2.1697572    13.870009   -34.575114   -192.50923    13.929524   -34.507395      2.26446    13.777388   -24.619115    -192.4853    13.856525   -24.698667            0            0            0  -0.69260129    13.959482   -304.56341 
 1000500    389.66481    277.54856    274.94888    93.493067    322.02905     2.168598     13.86542   -34.554522   -192.50974    13.916994   -34.539526    2.2477587    13.788823   -24.605156   -192.49358    13.833376   -24.711657            0            0            0  -0.69264313    13.959707   -304.56495 
 1000600    389.66481    282.70678    291.94041    98.780381    322.04826    2.1660434    13.884153   -34.547846   -192.49918    13.919528   -34.557896    2.2336746    13.788043   -24.565236   -192.48668    13.828369   -24.735405            0            0            0  -0.69268497    13.959931   -304.56649 
 1000700    389.66481    288.37225    258.07417    21.959414    322.82742    2.1845356    13.909051   -34.580753   -192.50062    13.879068   -34.544431    2.2642986    13.800909   -24.590806   -192.49208    13.811795   -24.735943            0            0            0  -0.69272682    13.960155   -304.56803 
 1000800    389.66481    272.99027    267.69236    44.270283    322.41642    2.1754416    13.913769   -34.600008   -192.49228    13.873132   -34.547755    2.2372853    13.808675   -24.597464   -192.48007    13.833776   -24.723382            0            0            0  -0.69276866    13.960379   -304.56956 
 1000900    389.66481    299.38324    271.88322    53.602784    322.76133    2.1742183    13.911735   -34.606341   -192.48971    13.873641    -34.53565    2.2236238    13.821712   -24.601943   -192.47994    13.833767   -24.726455            0            0            0  -0.69281051    13.960604    -304.5711 
 1001000    389.66481      311.387    269.40232    89.328429    322.46401    2.1604131    13.876461    -34.58599   -192.50043    13.906278   -34.564026    2.2244296    13.785865   -24.588433   -192.50027    13.858844   -24.759084            0            0            0  -0.69285235    13.960828   -304.57264 
 1001100    389.66481    316.18827    247.26227    89.922234    322.71945    2.1570972       13.881   -34.560668   -192.53493    13.953563   -34.585391    2.2243815    13.799293     -24.5803   -192.51104    13.868992   -24.780197            0            0            0  -0.69289419    13.961052   -304.57418 
 1001200    389.66481    329.29797    306.56602    105.81006    322.19118    2.1483246    13.863874   -34.569066   -192.54663    13.962188   -34.612361    2.2249812    13.766103   -24.589251   -192.53033    13.870379   -24.826296            0            0            0  -0.69293604    13.961277   -304.57572 
 1001300    389.66481    299.59893    320.49826    123.78164    322.57655    2.1436865     13.84178   -34.584831   -192.53642    13.951996   -34.598014    2.2206633    13.718024   -24.632165   -192.53907    13.888852   -24.805083            0            0            0  -0.69297788    13.961501   -304.57726 
 1001400    389.66481    329.93583    283.63983     163.2556    322.46213    2.1563093    13.852253   -34.587223   -192.54543    13.882886   -34.592506    2.2174529    13.703291   -24.616379   -192.55506     13.83876   -24.814076            0            0            0  -0.69301972    13.961725    -304.5788 
 1001500    389.66481    345.98626    339.71787    144.62159    322.03132    2.1587133    13.892367   -34.596137   -192.54214    13.875147   -34.565245    2.2022964    13.750602   -24.595537   -192.54555    13.832519   -24.773657            0            0            0  -0.69306157     13.96195   -304.58034 
 1001600    389.66481    337.92399    331.72487    117.38017    321.91683    2.1607737    13.886339    -34.58888   -192.53412    13.890679   -34.583645    2.2053923    13.787163    -24.58413   -192.53626    13.815575   -24.781233            0            0            0  -0.69310341    13.962174   -304.58188 
 1001700    389.66481    326.48048    353.79362    122.90272    322.32812    2.1665153    13.868001   -34.567683   -192.55582    13.897952   -34.593344    2.2075365    13.780225   -24.565771   -192.57105    13.802991   -24.772242            0            0            0  -0.69314526    13.962398   -304.58342 
 1001800    389.66481     349.6659    327.17992    144.38741    322.96241    2.1595961    13.866854   -34.571857   -192.56096    13.909621   -34.573658    2.2118947     13.77225   -24.571147   -192.54969    13.823671   -24.761601            0            0            0   -0.6931871    13.962622   -304.58496 
 1001900    389.66481    363.65832    344.30048    198.19167    321.87367    2.1597843    13.890068   -34.599852   -192.55681    13.906165   -34.604574    2.2108115    13.796246   -24.585381   -192.53779      13.7963   -24.773921            0            0            0  -0.69322894    13.962847    -304.5865 
 1002000    389.66481    414.50629    372.87583    167.67524    322.04935    2.1810707    13.893957    -34.60254   -192.55195    13.915065   -34.628204    2.2451198    13.814756   -24.607859   -192.54979    13.825007   -24.782117            0            0            0  -0.69327079    13.963071   -304.58804 
 1002100    389.66481    375.50752    402.85879    192.81019    322.10051    2.1561381    13.887102   -34.597959   -192.56837     13.93006   -34.594108    2.2093179    13.840213   -24.622962   -192.58093    13.833856   -24.764946            0            0            0  -0.69331263    13.963295   -304.58958 
 1002200    389.66481    397.17015    402.25755    231.65965     322.2151    2.1613732    13.867241   -34.613194   -192.56464    13.924797   -34.578326    2.2129321    13.785806   -24.620177   -192.57435    13.850985   -24.774144            0            0            0  -0.69335447     13.96352   -304.59112 
 1002300    389.66481    371.04665    385.89949    184.35739    322.48119    2.1518903    13.866907   -34.618966   -192.57088    13.914463   -34.590228    2.2177729    13.748877   -24.649021   -192.57409    13.855496   -24.794798            0            0            0  -0.69339632    13.963744   -304.59266 
 1002400    389.66481    386.55081    378.01778     224.9649    322.58677    2.1598935    13.868864   -34.620076   -192.57905     13.91416   -34.584659    2.2330975    13.753885   -24.681216   -192.59106    13.878432   -24.809334            0            0            0  -0.69343816    13.963968    -304.5942 
 1002500    389.66481    351.18475    375.77864    153.30273    322.14216    2.1429951    13.845522   -34.604754   -192.61038    13.930416   -34.620383    2.2195225    13.727135   -24.660345     -192.624    13.902655   -24.853624            0            0            0  -0.69348001    13.964193   -304.59574 
 1002600    389.66481    319.64277    322.47882    130.47796    322.45771    2.1492738    13.822089   -34.587275   -192.62308    13.955649   -34.627627    2.2027469    13.718357   -24.628013   -192.62283    13.946761   -24.855405            0            0            0  -0.69352185    13.964417   -304.59728 
 1002700    389.66481    359.10842    340.87462    154.60186    322.01643    2.1607515    13.810196    -34.57232   -192.61693    13.967834   -34.620537    2.2147795    13.722222   -24.616546   -192.63585    13.933263    -24.82911            0            0            0  -0.69356369    13.964641   -304.59882 
 1002800    389.66481    355.24414    353.58486    126.29372    322.21566    2.1783456    13.816332   -34.566414   -192.60413    13.969199   -34.611139    2.2253436    13.750039   -24.581773   -192.60613    13.923691   -24.807349            0            0            0  -0.69360554    13.964865   -304.60036 
 1002900    389.66481    331.51045    316.09307    90.805436    322.40315    2.2020136    13.814497   -34.548712   -192.56832     13.95847   -34.582362    2.2536336    13.731094   -24.548668   -192.57613    13.896823   -24.767235            0            0            0  -0.69364738     13.96509    -304.6019 
 1003000    389.66481     279.7045    293.53365    63.316124    322.45184    2.2089308     13.82218   -34.551086   -192.57892    13.932094   -34.551664    2.2759474    13.736231   -24.547633   -192.58418    13.839533   -24.739564            0            0            0  -0.69368922    13.965314   -304.60344 
 1003100    389.66481     241.3535    258.87339    30.276143      322.874    2.2133662    13.803781   -34.551931   -192.55986    13.931802   -34.551074     2.284267    13.712242    -24.56064   -192.53424     13.84089   -24.760162            0            0            0  -0.69373107    13.965538   -304.60498 
 1003200    389.66481    269.01237    270.30684    69.917366    322.30853    2.2138924    13.797574   -34.547693   -192.55802    13.928183   -34.564828    2.3027179    13.704476   -24.557132   -192.53716    13.840812   -24.756724            0            0            0  -0.69377291    13.965763   -304.60652 
 1003300    389.66481    269.49371    313.13214    60.244184    321.93985    2.2150836    13.801201   -34.556941   -192.56732    13.899133   -34.554885    2.3182254    13.679993   -24.568941   -192.54666    13.837635   -24.734419            0            0            0  -0.69381476    13.965987   -304.60806 
 1003400    389.66481    228.23222    239.82943    31.655949    322.44812      2.19961    13.800884   -34.562803   -192.55807    13.904697   -34.549351    2.3120547    13.675417   -24.578901   -192.54587    13.837614   -24.706902            0            0            0   -0.6938566    13.966211    -304.6096 
 1003500    389.66481    199.51691     274.5048   -12.136238    322.79985    2.2225921    13.787423   -34.576488   -192.53212     13.92439   -34.556734     2.335343    13.669466   -24.594698   -192.52742    13.855836   -24.711112            0            0            0  -0.69389844    13.966436   -304.61113 
 1003600    389.66481    215.14953    235.17926   -37.324468    322.70608     2.221444    13.796421   -34.552432   -192.54434     13.91883   -34.543364    2.3140273    13.694677   -24.549916   -192.54371    13.849674   -24.717791            0            0            0  -0.69394029     13.96666   -304.61267 
 1003700    389.66481    235.77391    254.56231   -35.525892    321.94964    2.2016395    13.778785   -34.529815   -192.53231    13.885353   -34.542415    2.2773406    13.680787   -24.535405   -192.53325    13.824407   -24.735666            0            0            0  -0.69398213    13.966884   -304.61421 
 1003800    389.66481    138.78576    187.45437   -24.705013    322.22805    2.2011772    13.749843   -34.534209   -192.53358      13.9008   -34.513535    2.2639492     13.63565    -24.52273   -192.52928    13.809036   -24.713328            0            0            0  -0.69402397    13.967108   -304.61575 
 1003900    389.66481    184.91769     193.4522   -64.364287    322.29641    2.1937009    13.763932   -34.540615   -192.53958    13.881379    -34.49817    2.2586033    13.655434   -24.517625   -192.52859    13.778356   -24.716781            0            0            0  -0.69406582    13.967333   -304.61729 
 1004000    389.66481    166.35958    227.30323   -95.649528    322.37632    2.1689989    13.774564   -34.585125   -192.53272    13.869269   -34.508088    2.2207012     13.68367   -24.583274   -192.51976    13.750435    -24.72972            0            0            0  -0.69410766    13.967557   -304.61883 
 1004100    389.66481    142.25762    242.69578   -57.656212    321.96668    2.1567871    13.778508   -34.608593   -192.51342    13.871646   -34.485531    2.1880305    13.694379   -24.618066   -192.51632    13.793895   -24.700132            0            0            0  -0.69414951    13.967781   -304.62037 
 1004200    389.66481    163.69262    207.93967   -74.326521     322.4647    2.1395581    13.811646   -34.623842   -192.50957    13.894651   -34.521932     2.171345    13.718637   -24.658022   -192.50744    13.848204   -24.721504            0            0            0  -0.69419135    13.968006   -304.62191 
 1004300    389.66481    172.30168    173.25293    -135.3451    322.23975    2.1102713    13.810786   -34.610338   -192.51169    13.893973   -34.551361    2.1532919    13.721741   -24.655162   -192.49924    13.831875   -24.727204            0            0            0  -0.69423319     13.96823   -304.62345 
 1004400    389.66481    122.17998    176.26817   -88.725189    322.22722    2.1023972    13.805615   -34.602562   -192.53564    13.883733    -34.56228    2.1493958    13.699911   -24.652429   -192.51347    13.814002   -24.749416            0            0            0  -0.69427504    13.968454   -304.62499 
 1004500    389.66481    176.04716    168.97023   -109.02788    322.33139    2.0894899    13.788027   -34.595797   -192.52994    13.926475   -34.552982    2.1465222    13.670503   -24.622546   -192.49934    13.850187   -24.724959            0            0            0  -0.69431688    13.968679   -304.62653 
 1004600    389.66481    153.52361    207.04698   -151.28191    322.49149     2.082076    13.797403   -34.588113   -192.56481    13.945532     -34.5547     2.154603    13.693694    -24.62762    -192.5307    13.863559   -24.724466            0            0            0  -0.69435873    13.968903   -304.62807 
 1004700    389.66481    162.70136    138.22701    -143.0909     322.5997    2.1057229    13.785807   -34.604299   -192.59289    13.967237   -34.572366    2.1789601    13.675385   -24.652957   -192.56787    13.877917   -24.742008            0            0            0  -0.69440057    13.969127   -304.62961 
 1004800    389.66481    117.54044    166.58899   -157.51347    322.27292    2.0924314    13.781785   -34.595413   -192.59584    13.946775   -34.593189     2.144983     13.67592   -24.607969   -192.57827    13.905695   -24.791364            0            0            0  -0.69444241    13.969351   -304.63115 
 1004900    389.66481    170.74192    181.43725   -148.60067    322.49502    2.1104657    13.755575   -34.580717   -192.60265    13.970004   -34.597835     2.168318    13.666633   -24.606009   -192.59124    13.934011   -24.813449            0            0            0  -0.69448426    13.969576   -304.63269 
 1005000    389.66481    163.83674    178.49652   -94.438143    322.35856    2.1067516    13.748358    -34.57747   -192.62434    13.993928   -34.621352    2.1790757    13.649544   -24.602329    -192.6273    13.951235   -24.863195            0            0            0   -0.6945261      13.9698   -304.63423 
Loop time of 7319.14 on 512 procs for 1000000 steps with 461920 atoms

Performance: 23.609 ns/day, 1.017 hours/ns, 136.628 timesteps/s
99.9% CPU use with 512 MPI tasks x no OpenMP threads

MPI task timing breakdown:
Section |  min time  |  avg time  |  max time  |%varavg| %total
---------------------------------------------------------------
Pair    | 3369.3     | 4665.8     | 4889.1     | 445.8 | 63.75
Neigh   | 0.35827    | 0.93426    | 1.0918     |  12.6 |  0.01
Comm    | 679.3      | 917.29     | 2095.6     | 852.4 | 12.53
Output  | 5.1835     | 5.2913     | 5.3316     |   0.6 |  0.07
Modify  | 39.146     | 53.223     | 57.947     |  40.1 |  0.73
Other   |            | 1677       |            |       | 22.91

Nlocal:    902.188 ave 990 max 269 min
Histogram: 16 0 0 0 0 0 0 16 292 188
Nghost:    3313.41 ave 3558 max 2049 min
Histogram: 16 16 0 0 0 0 15 1 194 270
Neighs:    63462.3 ave 71194 max 9508 min
Histogram: 16 0 0 0 0 0 0 16 289 191

Total # of neighbors = 32492683
Ave neighs/atom = 70.3427
Neighbor list builds = 291
Dangerous builds = 0






Total wall time: 2:06:26
