LAMMPS (16 Feb 2016)
# ------------------------ INITIALIZATION ----------------------------
echo both
#log		log.c
units           metal
dimension       3
boundary        p p p
atom_style      atomic
shell         mkdir  cfg
WARNING: Shell command 'mkdir' failed with error 'File exists' (../input.cpp:1126)
shell         mkdir  dump
WARNING: Shell command 'mkdir' failed with error 'File exists' (../input.cpp:1126)


# ----------------------- ATOM DEFINITION & Force Field -------------
lattice         fcc 3.615 #origin 0.0 0.0 0.0 orient x 1 -1 0 orient y 1 1 -2 orient z 1 1 1
Lattice spacing in x,y,z = 3.615 3.615 3.615
variable        Lx equal 65
variable        Ly equal 3
variable        Lz equal 260
variable        boxLZ equal 270
region          SYSTEM block -${Lx} ${Lx} -${Ly} ${Ly} -${Lz} 0 units lattice
region          SYSTEM block -65 ${Lx} -${Ly} ${Ly} -${Lz} 0 units lattice
region          SYSTEM block -65 65 -${Ly} ${Ly} -${Lz} 0 units lattice
region          SYSTEM block -65 65 -3 ${Ly} -${Lz} 0 units lattice
region          SYSTEM block -65 65 -3 3 -${Lz} 0 units lattice
region          SYSTEM block -65 65 -3 3 -260 0 units lattice
region          BOX block -${Lx} ${Lx} -${Ly} ${Ly} -${boxLZ} 5 units lattice
region          BOX block -65 ${Lx} -${Ly} ${Ly} -${boxLZ} 5 units lattice
region          BOX block -65 65 -${Ly} ${Ly} -${boxLZ} 5 units lattice
region          BOX block -65 65 -3 ${Ly} -${boxLZ} 5 units lattice
region          BOX block -65 65 -3 3 -${boxLZ} 5 units lattice
region          BOX block -65 65 -3 3 -270 5 units lattice
create_box      1 BOX
Created orthogonal box = (-234.975 -10.845 -976.05) to (234.975 10.845 18.075)
  16 by 1 by 32 MPI processor grid
create_atoms    1 region SYSTEM
Created 812760 atoms

delete_atoms     porosity BOX 0.0001 13178
Deleted 88 atoms, new total = 812672

#---------------------------------------------------------------------


pair_style      eam/alloy
pair_coeff  	  * * Cu01.eam.alloy Cu

#----------------------------------------------------------------------
velocity       all create 300.0 2289 mom yes rot yes dist gaussian
fix             1 all npt temp 300 300 0.1 iso 0.0 0.0 2
run      10000
Neighbor list info ...
  1 neighbor list requests
  update every 1 steps, delay 10 steps, check yes
  max neighbors/atom: 2000, page size: 100000
  master list distance cutoff = 7.50679
  ghost atom cutoff = 7.50679
  binsize = 3.75339 -> bins = 126 6 265
Memory usage per processor = 2.15788 Mbytes
Step Temp E_pair E_mol TotEng Press Volume 
       0          300   -2875025.1            0   -2843511.3     2968.437     10133330 
   10000    299.56752     -2842850            0   -2811381.7   0.21468218     10271159 
Loop time of 127.646 on 512 procs for 10000 steps with 812672 atoms

Performance: 6.769 ns/day, 3.546 hours/ns, 78.342 timesteps/s
99.9% CPU use with 512 MPI tasks x no OpenMP threads

MPI task timing breakdown:
Section |  min time  |  avg time  |  max time  |%varavg| %total
---------------------------------------------------------------
Pair    | 35.068     | 81.747     | 90.982     | 110.9 | 64.04
Neigh   | 0.00019574 | 0.067673   | 0.18721    |   6.4 |  0.05
Comm    | 2.8497     | 12.121     | 36.202     | 135.5 |  9.50
Output  | 0.00081992 | 0.00082907 | 0.00085306 |   0.0 |  0.00
Modify  | 24.839     | 32.51      | 87.646     | 177.3 | 25.47
Other   |            | 1.199      |            |       |  0.94

Nlocal:    1587.25 ave 1809 max 0 min
Histogram: 16 0 0 0 16 0 0 8 8 464
Nghost:    4604.46 ave 5146 max 497 min
Histogram: 16 0 0 13 3 0 16 0 102 362
Neighs:    111795 ave 128784 max 0 min
Histogram: 16 0 0 16 0 0 0 10 147 323

Total # of neighbors = 57238952
Ave neighs/atom = 70.433
Neighbor list builds = 11
Dangerous builds = 0
unfix 1

fix            2 all nvt temp 300.0 300.0 0.1

run      10000
Memory usage per processor = 2.15788 Mbytes
Step Temp E_pair E_mol TotEng Press 
   10000    299.56752     -2842850            0   -2811381.7   0.21468218 
   20000    299.76106     -2842833            0   -2811344.4   -461.90742 
Loop time of 123.049 on 512 procs for 10000 steps with 812672 atoms

Performance: 7.022 ns/day, 3.418 hours/ns, 81.269 timesteps/s
99.9% CPU use with 512 MPI tasks x no OpenMP threads

MPI task timing breakdown:
Section |  min time  |  avg time  |  max time  |%varavg| %total
---------------------------------------------------------------
Pair    | 34.72      | 80.219     | 87.744     | 108.7 | 65.19
Neigh   | 1.7881e-05 | 0.0060524  | 0.007266   |   1.7 |  0.00
Comm    | 2.833      | 11.743     | 34.819     | 132.6 |  9.54
Output  | 0.00020003 | 0.00021561 | 0.00023603 |   0.0 |  0.00
Modify  | 21.124     | 26.844     | 80.702     | 189.7 | 21.82
Other   |            | 4.235      |            |       |  3.44

Nlocal:    1587.25 ave 1813 max 0 min
Histogram: 16 0 0 0 16 0 0 9 28 443
Nghost:    4605.12 ave 5151 max 503 min
Histogram: 16 0 0 14 2 0 16 0 99 365
Neighs:    111788 ave 129061 max 0 min
Histogram: 16 0 0 16 0 0 0 10 147 323

Total # of neighbors = 57235518
Ave neighs/atom = 70.4288
Neighbor list builds = 1
Dangerous builds = 0
reset_timestep 0
unfix    2
#---------------------- DEFINE Laser GERION and GROUP ----------------
region       R1  block -75  75  INF  INF  INF  5  units box
group        G1 region R1
259429 atoms in group G1
group        G2 subtract all G1
553243 atoms in group G2


#define     temperature/pressure calculation  group
variable    x1atom atom "x>=0  &&  x<4 &&  z>-40 && z<1"     ##NEW!!!!!!!!!!!!
variable    x2atom atom "x>=-234.98  &&  x<-230.98 &&  z>-40 && z<1"
variable    x3atom atom "x>=0  &&  x<4 &&  z>-20 && z<1"
variable    x4atom atom "x>=-234.98  &&  x<-230.98 &&  z>-20 && z<1"
variable    x5atom atom "x>=196  &&  x<200 &&  z>-40 && z<1"

group       x1atom variable x1atom
298 atoms in group x1atom
group       x2atom variable x2atom
276 atoms in group x2atom
group       x3atom variable x3atom
152 atoms in group x3atom
group       x4atom variable x4atom
144 atoms in group x4atom
group       x5atom variable x5atom
367 atoms in group x5atom


compute      COM1x x1atom com
compute      COM2x x2atom com
compute      COM3x x3atom com
compute      COM4x x4atom com
compute      COM5x x5atom com

compute      COMall all com

#Temperature profile
#variable      Tprofile atom 300*(1+(step/5000)*2.5*exp(z/40))
#variable tmp equal "lz"
#variable L0 equal ${tmp}
variable      Tprofile atom  300+600*(step/5000)*exp(z/40)*exp(-x*x/1289)


# ------------------------- SETTINGS ---------------------------------
thermo          100
thermo_style    custom step lx pxx pyy pzz temp c_COM1x[1] c_COM1x[2] c_COM1x[3] c_COM2x[1] c_COM2x[2] c_COM2x[3] c_COM3x[1] c_COM3x[2] c_COM3x[3] c_COM4x[1] c_COM4x[2] c_COM4x[3]  c_COM5x[1] c_COM5x[2] c_COM5x[3] c_COMall[1] c_COMall[2] c_COMall[3]

timestep       0.002


compute dispall all displace/atom
# ---------------- Run Laser Material Interaction --------------------
#dump          1 all custom 1000 dump/z1dump.atom id type x y z c_dispall[1]  c_dispall[2]  c_dispall[3] c_dispall[4]
#dump          2 all cfg 100 cfg/*.cfg mass type xs ys zs
#dump_modify   2 element Al

#relax for 2 PS
#fix           1 all nvt temp 300.0 300.0 0.1
#run  1000
#unfix         1

fix           1  all nve
fix           3temp  all  langevin  v_Tprofile  0  0.1  378411   #TEST ALL
run           5000
Memory usage per processor = 2.53288 Mbytes
Step Lx Pxx Pyy Pzz Temp COM1x[1] COM1x[2] COM1x[3] COM2x[1] COM2x[2] COM2x[3] COM3x[1] COM3x[2] COM3x[3] COM4x[1] COM4x[2] COM4x[3] COM5x[1] COM5x[2] COM5x[3] COMall[1 COMall[2 COMall[3 
       0    472.07109   -436.27325   -489.42655   -460.02245    299.76106    2.4637926   -0.8038204   -19.520522   -233.32003   -0.9334964   -19.252607    2.5202206  -0.84028655   -9.1949652   -233.34243  -0.95811315    -9.282451    198.08936  -0.77381325   -19.603962  -0.90638798  -0.90779105   -469.91017 
     100    472.07109   -470.43375   -450.06764   -455.13099    299.65949    2.4546137  -0.80692675   -19.518177   -233.32342  -0.94644847   -19.245345    2.5110514  -0.85418687   -9.1852803   -233.33512  -0.96729223   -9.2770175    198.06279  -0.76325935   -19.593425  -0.90644705  -0.90725787   -469.91094 
     200    472.07109   -436.15881   -439.25856   -435.28842    300.31661     2.445516  -0.81650227   -19.513133   -233.31706  -0.92864345   -19.264922    2.4944144  -0.84433244    -9.186151   -233.33211  -0.93994327    -9.303789    198.06492  -0.75822424   -19.608855  -0.90694319  -0.90695918   -469.91135 
     300    472.07109    -425.2969   -424.82592     -432.345    300.05496    2.4551743  -0.80607496   -19.500903   -233.31938  -0.90898053   -19.257719    2.5004153   -0.8225148    -9.159067   -233.32397  -0.90822158    -9.286452    198.06762  -0.78087385   -19.591528  -0.90710497  -0.90694627   -469.91155 
     400    472.07109   -442.57672   -441.12287   -442.44371    299.76933    2.4688445  -0.79700912   -19.496324   -233.32743  -0.92484602   -19.261751    2.5200742  -0.82882423   -9.1613683   -233.33739  -0.95062333   -9.2849724    198.07544  -0.77433555   -19.604415  -0.90717308  -0.90647705   -469.91204 
     500    472.07109   -420.72396   -419.94054   -424.14877    300.40809    2.4738162  -0.80351646   -19.520959   -233.32758  -0.96555491   -19.258299    2.5373359  -0.82525515    -9.165676   -233.34457  -0.99388602   -9.2887607    198.08079  -0.77625351   -19.592235  -0.90750178  -0.90651144   -469.91188 
     600    472.07109   -413.31702   -401.06178   -425.78929    300.62849    2.4665574  -0.79708556   -19.505439   -233.32261  -0.93387243   -19.256232    2.5340947  -0.81806444   -9.1444338   -233.35182  -0.94774982   -9.2698717    198.09201  -0.77326737   -19.607958  -0.90680152  -0.90659428   -469.91144 
     700    472.07109   -474.30956   -429.91872   -428.68458    300.33053    2.4528452  -0.80742727   -19.509954   -233.33182  -0.93932253   -19.241778    2.5077595  -0.84961968   -9.1567586   -233.36243  -0.96236919   -9.2427833    198.07983  -0.77993735   -19.608801  -0.90667558  -0.90589666   -469.91108 
     800    472.07109    -480.9438   -463.90444   -490.26425    300.05194    2.4543556  -0.80773067   -19.499101   -233.30932  -0.95566314   -19.240173    2.5112159  -0.85521521   -9.1504132   -233.32655  -0.95569879    -9.240994    198.08465  -0.79229775   -19.610998  -0.90714586  -0.90530437   -469.91064 
     900    472.07109    -429.1826    -421.1233    -459.9385    300.48554    2.4565155   -0.8118911   -19.510095     -233.298  -0.95398466   -19.232447    2.5223323  -0.84752083    -9.142532   -233.32232   -0.9625875   -9.2488786    198.08994  -0.78192984   -19.616111  -0.90712846   -0.9054047   -469.91015 
    1000    472.07109   -394.42103    -382.5825   -409.44498    300.80385    2.4659797   -0.8075694   -19.502596   -233.30643  -0.95875027   -19.222466    2.5551081  -0.80957195   -9.1332451   -233.31336  -0.96413416   -9.2520856    198.10644  -0.78411007   -19.620933  -0.90687531  -0.90551786   -469.91052 
    1100    472.07109   -397.04814   -379.85037    -418.7055    301.08284    2.4682558  -0.80696593   -19.492571   -233.31258  -0.94479071   -19.220499    2.5311377  -0.82850147   -9.1138941   -233.30969  -0.95827332   -9.2356925    198.10368  -0.77644695   -19.606911  -0.90702287  -0.90521468   -469.91035 
    1200    472.07109   -380.46555   -410.91694    -416.7954    301.26628    2.4493773  -0.82934061   -19.511572    -233.3222   -0.9454084     -19.2205    2.5213532  -0.84642431   -9.1285306   -233.32056  -0.94259446   -9.2339058    198.11211  -0.77046079   -19.605691  -0.90675781  -0.90534842   -469.91007 
    1300    472.07109   -393.19553   -408.55677   -399.13859    301.03721    2.4526847  -0.81885682   -19.521107    -233.3204  -0.94678461   -19.227827     2.514465  -0.84690108   -9.1657037   -233.32254  -0.96229339   -9.2414915    198.11547  -0.78243473   -19.613774  -0.90632424  -0.90524761   -469.90945 
    1400    472.07109   -402.89118   -401.38105   -427.88646    300.80279    2.4286137  -0.81956888   -19.512183   -233.31406  -0.92735083   -19.260679    2.4892969  -0.85757032   -9.1606821   -233.30933  -0.94007029   -9.2645228    198.10383  -0.78189717   -19.620973    -0.906274  -0.90461517   -469.90872 
    1500    472.07109   -410.56431   -405.32319    -403.8822     301.2556    2.4423135  -0.78003371   -19.534447   -233.30122  -0.92722473   -19.233468    2.4936698  -0.80854292   -9.1845586   -233.28644  -0.93823743   -9.2203575    198.10201  -0.77507938   -19.640159  -0.90664133  -0.90413139   -469.90847 
    1600    472.07109    -404.7131   -374.24433   -413.69903    301.14054    2.4502497  -0.79219462   -19.547168   -233.30587  -0.91832503   -19.244029    2.5236479  -0.83019733   -9.2020613   -233.29943  -0.93409723   -9.2623336    198.09955  -0.75527957   -19.633654  -0.90728116  -0.90405942   -469.90827 
    1700    472.07109   -406.98396   -374.60428   -413.89652    301.36949    2.4616565  -0.78749938   -19.554805   -233.30471   -0.9171566   -19.251651    2.5242486  -0.83614423   -9.2194098   -233.30372  -0.91118937   -9.2835344    198.09619  -0.75092722    -19.62963  -0.90786696  -0.90446105   -469.90797 
    1800    472.07109   -407.80555   -398.84857   -413.27028    301.30176    2.4574175  -0.79993541   -19.528086   -233.31076  -0.93792362   -19.233036    2.5169272  -0.82795982   -9.1679775   -233.31231  -0.91914503   -9.2533052    198.10728  -0.75211021   -19.649156  -0.90798014  -0.90451036   -469.90793 
    1900    472.07109   -410.53479   -422.07871   -402.16393    301.31455    2.4496229  -0.81626427   -19.548394   -233.31208  -0.94446006   -19.245688    2.5224144  -0.83865764   -9.1651604   -233.32705  -0.92654157   -9.2575663     198.0826   -0.7694344   -19.645533  -0.90805129  -0.90475097   -469.90823 
    2000    472.07109   -404.43292   -410.68141   -442.31427     301.3943    2.4661319  -0.81722467   -19.536145    -233.3137  -0.93544281   -19.235715    2.5246467  -0.85157294   -9.1504427   -233.33029  -0.91674133   -9.2444474    198.09433  -0.76776428   -19.634101  -0.90806773    -0.904857   -469.90825 
    2100    472.07109   -428.82398   -416.14179   -421.72981    301.80934    2.4418261    -0.813515   -19.513209   -233.29743  -0.92616439   -19.242396    2.5002028  -0.84665819   -9.1219043   -233.29932  -0.89657547   -9.2623605    198.08381  -0.77479531   -19.639242  -0.90868843  -0.90402181   -469.90885 
    2200    472.07109    -370.6622   -390.41498   -393.48919    301.36234    2.4627671   -0.7801454   -19.517657   -233.31028   -0.9357967   -19.267546    2.5357713  -0.82851398   -9.1135579   -233.30383  -0.90433202   -9.2898363    198.09107  -0.77818373   -19.627155  -0.90910933  -0.90405478   -469.90917 
    2300    472.07109   -400.26552   -381.70711   -410.83159    301.89078     2.459179  -0.77538183   -19.514477     -233.322  -0.93300144   -19.259691     2.527367  -0.81800733   -9.1346837   -233.32458  -0.93173968    -9.275463    198.08636   -0.7535119   -19.620474  -0.90892221  -0.90412717   -469.90893 
    2400    472.07109   -393.66875   -382.06351   -413.95792    301.94261    2.4674787  -0.79405822   -19.543482    -233.3018  -0.92766196    -19.23743    2.5156194  -0.83341887    -9.197285   -233.31719   -0.9193314   -9.2551903    198.08886  -0.75537925   -19.620951  -0.90879646  -0.90456074   -469.90894 
    2500    472.07109   -415.73057   -372.16088   -401.49263    301.51805    2.4382368  -0.81958466   -19.528195   -233.29447   -0.9441084   -19.226337    2.4891815  -0.83710368   -9.1464233   -233.30974  -0.95982916   -9.2441796    198.09084  -0.74822469   -19.609553  -0.90879618   -0.9048025   -469.90872 
    2600    472.07109   -398.73223   -396.97232   -433.73724    301.50279    2.4245847  -0.81312362   -19.518625   -233.29456  -0.95971866   -19.241363    2.4648356  -0.84516842   -9.1291084    -233.3156  -0.97569098   -9.2688833    198.08689  -0.73882954   -19.601144  -0.90910098  -0.90508038   -469.90852 
    2700    472.07109    -381.4307     -390.416   -390.62182    302.44577    2.4371415  -0.83175834   -19.521452   -233.28184  -0.94458414    -19.24987    2.4968685  -0.88433242   -9.1434463   -233.29781  -0.95966142    -9.271383    198.10048  -0.74230269   -19.599174  -0.90920199  -0.90530557   -469.90917 
    2800    472.07109   -365.82279   -366.13048   -359.80468    301.86697    2.4469697  -0.82342588   -19.530355   -233.28244  -0.94817453   -19.228033    2.5002273  -0.85826712   -9.1446251   -233.29799  -0.96069911   -9.2482598    198.09303  -0.73238094   -19.604041   -0.9089883  -0.90605655   -469.90991 
    2900    472.07109   -360.91435   -333.40875   -348.89823    302.27895     2.461061  -0.80660296   -19.531727   -233.29988  -0.95194758   -19.233661     2.496487  -0.83923349   -9.1563457   -233.30341   -0.9648815   -9.2543598    198.11114  -0.74990934   -19.609257  -0.90866988  -0.90590342   -469.91017 
    3000    472.07109   -386.85064   -371.44815   -412.66402    301.91567     2.474982  -0.79728515   -19.542709   -233.30176  -0.96486157   -19.243563    2.5155705  -0.84075056   -9.1409367   -233.31509  -0.98323168   -9.2884191    198.10207  -0.74575891   -19.610739   -0.9083332  -0.90617292   -469.91011 
    3100    472.07109   -355.50773   -372.90945   -374.92607    302.22343    2.4576281  -0.83426167   -19.549221   -233.29722  -0.95216899   -19.239844    2.4779877  -0.88038934   -9.1535377   -233.29833  -0.96572424   -9.2644882    198.10829  -0.74226438   -19.614424  -0.90810926  -0.90631438   -469.91026 
    3200    472.07109   -376.64936   -394.25347   -417.78131    302.31183     2.456057  -0.81739522   -19.538662   -233.28559  -0.93210531    -19.24977    2.5007356  -0.87394968   -9.1429329   -233.29757  -0.95789035   -9.2581862    198.11318  -0.76221541   -19.606057  -0.90777755  -0.90661622   -469.91024 
    3300    472.07109   -381.40888   -357.60001   -400.23752     302.3328    2.4671272  -0.81047184   -19.552523   -233.30045  -0.95075753   -19.253426    2.5223934  -0.86497238   -9.1619767   -233.30776  -0.97505899   -9.2672776     198.1079  -0.75184322   -19.632289  -0.90800487  -0.90665628   -469.91057 
    3400    472.07109   -362.85988   -347.34803   -390.10804    302.54749    2.4593334  -0.81167202   -19.545386   -233.29968  -0.92226901   -19.243822    2.5013964  -0.84676529   -9.1605051   -233.31463  -0.95251973   -9.2681378    198.12273  -0.74051719   -19.635461  -0.90830617  -0.90687995   -469.91034 
    3500    472.07109   -334.44253   -314.25772   -401.65613    302.75446    2.4650279  -0.82732936   -19.534884   -233.30283  -0.90197557   -19.240528     2.507898  -0.84172072   -9.1486852    -233.3198  -0.91554361   -9.2509669    198.12942  -0.72499901   -19.649307  -0.90851449  -0.90697718   -469.91072 
    3600    472.07109   -336.90957     -302.057   -331.78498      302.881    2.4612686  -0.81465024   -19.543938   -233.31029  -0.90866812   -19.246201    2.5030013  -0.81264488   -9.1685708   -233.32177  -0.92589871   -9.2520395    198.13622  -0.73315505   -19.641817  -0.90869599  -0.90716889   -469.91133 
    3700    472.07109    -290.7997   -300.59015   -318.20353    302.86001    2.4668171  -0.83425868   -19.553034    -233.3135  -0.91734635   -19.238182    2.5212921  -0.85743853   -9.2025784    -233.3201  -0.93967254   -9.2492802    198.11868   -0.7269736   -19.647017  -0.90814864  -0.90742666   -469.91162 
    3800    472.07109   -302.79241   -299.44855   -307.47915    302.35889    2.4487956  -0.82057001   -19.575856   -233.30841  -0.90722047    -19.25413    2.5129912  -0.85771306   -9.2337685   -233.31789  -0.91304848   -9.2535702    198.10798  -0.70364774   -19.602537  -0.90806918  -0.90772416   -469.91169 
    3900    472.07109   -322.71818   -316.53555   -343.89886    303.03283    2.4380767   -0.8061041    -19.57015   -233.29258  -0.90374891   -19.262848      2.47867  -0.84262984     -9.23048   -233.30805  -0.92486381   -9.2743664    198.10849  -0.70002941   -19.603422   -0.9080914  -0.90840717   -469.91163 
    4000    472.07109   -340.62409   -328.08752   -361.54904    302.62223    2.4377954  -0.78229372   -19.534985   -233.30429   -0.9249075   -19.271855    2.4896223  -0.86235322   -9.1823311   -233.30773   -0.9332801   -9.2895463    198.09918  -0.71548639   -19.587597   -0.9078786  -0.90864933   -469.91127 
    4100    472.07109   -291.76537   -281.16451   -292.37525     302.8176    2.4489726  -0.75248208   -19.531944   -233.29704  -0.92686636   -19.262029    2.5085306  -0.78700399   -9.1977919   -233.30371  -0.92742319   -9.2593564     198.0996  -0.71406221   -19.598467  -0.90804418  -0.90855865   -469.91076 
    4200    472.07109   -285.38472   -297.72487   -350.15145    303.30012    2.4303234  -0.77550276   -19.520052   -233.32798  -0.94461502   -19.249104    2.4842642  -0.84773872   -9.1898285    -233.3443  -0.95257282   -9.2426125    198.09724  -0.71896126   -19.603568  -0.90759472  -0.90857395   -469.91063 
    4300    472.07109   -293.65732   -280.10646   -282.94728    302.72785    2.4726987  -0.77195854   -19.514074   -233.33605  -0.93588968   -19.243258    2.5126899  -0.84540983    -9.168799   -233.34128  -0.96627069   -9.2232338    198.08319  -0.70143619   -19.590184  -0.90723466  -0.90854952   -469.91118 
    4400    472.07109   -297.64737   -294.57328   -285.43742    302.98346    2.4974707  -0.76630275   -19.535176   -233.33505   -0.9258164   -19.236675    2.5671705  -0.84307219   -9.2134117   -233.33447  -0.93829069   -9.2281506    198.10325  -0.69226084   -19.609741  -0.90725463  -0.90851971   -469.91174 
    4500    472.07109   -274.07336   -293.44998   -306.86409    303.48431    2.4864189  -0.76722818   -19.507282   -233.33261   -0.9389714   -19.244687    2.5477223   -0.8206214   -9.1946274   -233.32628  -0.94673458   -9.2178151    198.10014  -0.71316079   -19.647791  -0.90757148  -0.90860579    -469.9121 
    4600    472.07109   -239.19676   -222.87378   -239.92444    303.61796    2.4963949  -0.79043729    -19.52128   -233.34103  -0.93683921   -19.260943    2.5650477  -0.81259224   -9.2121419   -233.32803  -0.93776079   -9.2575089    198.10062  -0.71806842   -19.631139  -0.90740746  -0.90901314   -469.91241 
    4700    472.07109   -260.68482   -239.01918   -272.04452    303.47738    2.5180125   -0.7916607   -19.519445   -233.34403  -0.93188363   -19.242143    2.5768696  -0.82360116   -9.1900535   -233.32506   -0.9141372   -9.2486559    198.08425  -0.72425128   -19.654635  -0.90732692  -0.90980591   -469.91309 
    4800    472.07109   -222.22353   -215.27562    -261.9261    303.05671    2.4955185  -0.79995944   -19.541979   -233.31214  -0.93343303   -19.246371    2.5747109  -0.85116431   -9.1844181   -233.30133  -0.91816393   -9.2440856    198.09568  -0.73058737   -19.645846  -0.90742583  -0.90980616   -469.91366 
    4900    472.07109   -269.41614   -264.92015   -285.51599    303.84796    2.4839885  -0.77199014   -19.537264   -233.32583  -0.93630614   -19.262206    2.5591158  -0.83323535   -9.1464801    -233.3223  -0.93955012   -9.2694742    198.10091  -0.74346535   -19.659133  -0.90759388   -0.9096633   -469.91353 
    5000    472.07109   -226.92641   -247.06573   -274.64963    303.37742    2.4813181  -0.77061917    -19.57711   -233.31551  -0.94200501   -19.275613    2.5588739  -0.86286773   -9.2041514   -233.31182  -0.93311437   -9.2753332    198.11519  -0.72487134    -19.65511  -0.90726598  -0.90927555   -469.91394 
Loop time of 64.9308 on 512 procs for 5000 steps with 812672 atoms

Performance: 13.306 ns/day, 1.804 hours/ns, 77.005 timesteps/s
99.9% CPU use with 512 MPI tasks x no OpenMP threads

MPI task timing breakdown:
Section |  min time  |  avg time  |  max time  |%varavg| %total
---------------------------------------------------------------
Pair    | 17.905     | 40.764     | 45.258     |  76.6 | 62.78
Neigh   | 0.00026059 | 0.085562   | 0.1025     |   6.5 |  0.13
Comm    | 2.2641     | 6.4152     | 18.163     |  91.0 |  9.88
Output  | 0.12267    | 0.33361    | 0.67484    |  17.2 |  0.51
Modify  | 0.045329   | 2.7728     | 3.2554     |  34.1 |  4.27
Other   |            | 14.56      |            |       | 22.42

Nlocal:    1587.25 ave 1802 max 0 min
Histogram: 16 0 0 0 16 0 0 8 8 464
Nghost:    4604.08 ave 5162 max 500 min
Histogram: 16 0 0 15 1 0 16 0 106 358
Neighs:    111794 ave 128034 max 0 min
Histogram: 16 0 0 16 0 0 0 10 78 392

Total # of neighbors = 57238583
Ave neighs/atom = 70.4326
Neighbor list builds = 14
Dangerous builds = 0


variable  com1_x equal "c_COM1x[1]"
variable  com1_y equal "c_COM1x[2]"
variable  com1_z equal "c_COM1x[3]"
variable  com2_x equal "c_COM2x[1]"
variable  com2_y equal "c_COM2x[2]"
variable  com2_z equal "c_COM2x[3]"
variable  com3_x equal "c_COM3x[1]"
variable  com3_y equal "c_COM3x[2]"
variable  com3_z equal "c_COM3x[3]"
variable  com4_x equal "c_COM4x[1]"
variable  com4_y equal "c_COM4x[2]"
variable  com4_z equal "c_COM4x[3]"
variable  com5_x equal "c_COM5x[1]"
variable  com5_y equal "c_COM5x[2]"
variable  com5_z equal "c_COM5x[3]"
variable  comall_x equal "c_COMall[1]"
variable  comall_y equal "c_COMall[2]"
variable  comall_z equal "c_COMall[3]"


fix          2 all print 100 "${com1_x}   ${com1_y}   ${com1_z}  ${com2_x}   ${com2_y}   ${com2_z} ${com3_x}   ${com3_y}   ${com3_z} ${com4_x}   ${com4_y}   ${com4_z} ${com5_x}   ${com5_y}   ${com5_z} ${comall_x}   ${comall_y}   ${comall_z}" file COM.data screen no
#-------------------------- Wave Propagation -------------------------
unfix        3temp
run          1000000
Memory usage per processor = 2.53288 Mbytes
Step Lx Pxx Pyy Pzz Temp COM1x[1] COM1x[2] COM1x[3] COM2x[1] COM2x[2] COM2x[3] COM3x[1] COM3x[2] COM3x[3] COM4x[1] COM4x[2] COM4x[3] COM5x[1] COM5x[2] COM5x[3] COMall[1 COMall[2 COMall[3 
    5000    472.07109   -226.92641   -247.06573   -274.64963    303.37742    2.4813181  -0.77061917    -19.57711   -233.31551  -0.94200501   -19.275613    2.5588739  -0.86286773   -9.2041514   -233.31182  -0.93311437   -9.2753332    198.11519  -0.72487134    -19.65511  -0.90726598  -0.90927555   -469.91394 
    5100    472.07109   -278.42152   -283.34443   -296.03977    303.51854    2.4815002  -0.80498959   -19.596821   -233.31068  -0.92158773   -19.260367    2.5456236  -0.91676712   -9.1721826    -233.3044  -0.93758844    -9.248243    198.09854  -0.70154948   -19.642684  -0.90703742  -0.90899506   -469.91405 
    5200    472.07109   -302.00548   -308.31174   -339.01373    303.84928    2.4805231  -0.80229628   -19.583183   -233.33357  -0.91278288   -19.269555    2.5540521  -0.87638846   -9.1486666   -233.32687  -0.93695234   -9.2837355     198.1099  -0.68457323   -19.647565  -0.90680885  -0.90871457   -469.91416 
    5300    472.07109   -282.16675    -299.3913   -316.29404    303.62723    2.4654877  -0.77361869   -19.514089   -233.34031  -0.90813619   -19.259538    2.4940357  -0.79245847   -9.0696837   -233.32391  -0.90263086   -9.2651451     198.1139  -0.68573715   -19.642224  -0.90658028  -0.90843409   -469.91428 
    5400    472.07109   -279.22061   -267.03912   -306.44473    303.57866    2.4467384  -0.73582941   -19.450493   -233.32123  -0.92708386   -19.260177     2.501557  -0.74591148    -8.999434   -233.31373  -0.90965382   -9.2766656    198.12258  -0.69753193   -19.624399  -0.90635171   -0.9081536   -469.91439 
    5500    472.07109   -272.37477   -273.04111   -347.47542    303.35402     2.431844  -0.73363417   -19.396269    -233.3222  -0.90310227   -19.274453    2.4833098  -0.76537795   -8.9531834   -233.31899  -0.89295931   -9.2926673    198.11652   -0.6957726   -19.639801  -0.90612315  -0.90787311    -469.9145 
    5600    472.07109   -318.51613   -322.84861   -320.69477    304.14067    2.4456388  -0.74957708   -19.392769   -233.34312  -0.89017166   -19.291464    2.5054521  -0.75231777    -8.942297    -233.3584  -0.90830617   -9.3221257    198.08108  -0.70459212   -19.634054  -0.90589458  -0.90759262   -469.91461 
    5700    472.07109   -278.21503   -317.58221   -290.72934    303.41398    2.4622203  -0.74106222   -19.404286   -233.36426   -0.8986936   -19.327822    2.5116446  -0.73953591   -8.9331639   -233.38049  -0.88867513   -9.3563681    198.04519  -0.71718074   -19.630002  -0.90566601  -0.90731214   -469.91472 
    5800    472.07109   -302.69471    -288.0888   -319.89402    303.39625    2.4791058  -0.77644786   -19.378119   -233.33039   -0.8913395   -19.352223    2.5389316  -0.79754421   -8.9156083   -233.34955  -0.87292277   -9.3829643    198.04727  -0.68707843   -19.615212  -0.90543744  -0.90703165   -469.91484 
    5900    472.07109   -300.11066   -318.39038   -325.20758     303.4849    2.4691038  -0.80655443   -19.373209   -233.32576  -0.87508248   -19.373395    2.5278988  -0.88278873   -8.9300537   -233.32659  -0.87990955   -9.3982185     198.0338  -0.71105603   -19.611557  -0.90520888  -0.90675116   -469.91495 
    6000    472.07109   -284.96443   -304.38748   -305.73044    303.55954    2.4549409  -0.84637712   -19.372636   -233.35196  -0.87597118   -19.376455    2.5000918  -0.90737081   -8.9172469   -233.34365  -0.88090996   -9.4032072    198.05404  -0.70821621   -19.644283  -0.90498031  -0.90647068   -469.91506 
    6100    472.07109   -276.09931   -275.05602   -283.70777    303.62369    2.4388951  -0.82495816   -19.340069    -233.3398  -0.86105533   -19.364286    2.5078722  -0.87670314   -8.8721549   -233.32807  -0.87651227   -9.3780054    198.04475  -0.73034855   -19.672659  -0.90475174  -0.90619019   -469.91517 
    6200    472.07109   -295.52013   -269.35946   -294.58014    303.96533    2.4427387  -0.82173118   -19.358701   -233.36161   -0.8835744    -19.37401     2.507324  -0.89313114   -8.9253288   -233.33484   -0.8822296     -9.39872    198.07397  -0.71409867   -19.680614  -0.90452317   -0.9059097   -469.91528 
    6300    472.07109   -262.95278   -269.05131    -261.9046    303.76877     2.451794  -0.81501843   -19.334847   -233.36904  -0.87755142   -19.371084    2.4999951  -0.87967302   -8.9426959   -233.34476  -0.88691096   -9.4042213    198.07848  -0.69917871   -19.672939  -0.90429461  -0.90562921   -469.91539 
    6400    472.07109   -219.52286   -214.52193   -230.43393    303.56154    2.4566904  -0.81569894   -19.311664   -233.36478  -0.88686515   -19.405259    2.5189813  -0.85711218   -8.9307519    -233.3497  -0.88462004   -9.4414096    198.09237  -0.72737225   -19.692299  -0.90406604  -0.90534873   -469.91551 
    6500    472.07109   -240.09429   -210.88049   -195.61805    303.61095    2.4863609  -0.84786131   -19.302371   -233.38201  -0.89412201   -19.397473    2.5665968  -0.85753075   -8.9356658   -233.36719  -0.87263175   -9.4184992    198.07257  -0.73433399   -19.695285  -0.90383747  -0.90506824   -469.91562 
    6600    472.07109   -217.05108   -229.67513   -192.85988    303.56713    2.4988463  -0.80745448   -19.290049    -233.3839   -0.9022166   -19.394874    2.5760833  -0.82411453   -8.9536418   -233.38069   -0.8846081   -9.4092319    198.06118  -0.71563708   -19.701722  -0.90360891  -0.90478775   -469.91573 
    6700    472.07109   -219.06496   -222.88202   -206.45557    303.70782     2.501488  -0.79712766   -19.305319   -233.37757  -0.89074571   -19.397526    2.5648707  -0.83899767   -8.9533112   -233.36995  -0.88257419   -9.4238166    198.05594   -0.7198895    -19.69429  -0.90338034  -0.90450726   -469.91584 
    6800    472.07109   -206.42339   -182.55389   -210.40054     303.3582    2.5013111  -0.78019878   -19.281845   -233.38798  -0.88354185   -19.412364    2.5742779  -0.82067678   -8.8784727   -233.38279  -0.86615255   -9.4329503     198.0517  -0.71990665   -19.695012  -0.90315177  -0.90422678   -469.91595 
    6900    472.07109   -218.71915   -239.05188   -209.77038    303.87556    2.4793587  -0.78666296   -19.268603   -233.41235  -0.87581482   -19.413452    2.5474591  -0.84522248   -8.8741516   -233.44065   -0.8726026   -9.4214101    198.05217  -0.72905061   -19.703934   -0.9029232  -0.90394629   -469.91607 
    7000    472.07109   -175.32377    -189.4167    -212.1833    303.55557    2.4832735  -0.78545146   -19.305974   -233.40219  -0.85523822   -19.382447    2.5493952  -0.85454514   -8.9114651   -233.42605  -0.87359761   -9.3807601    198.05277  -0.71177069    -19.67861  -0.90269464   -0.9036658   -469.91618 
    7100    472.07109   -213.80421    -181.1657   -179.54265    303.37933    2.4850214  -0.79380316   -19.321739   -233.40635  -0.87077667   -19.359464    2.5616334  -0.88056048      -8.9059   -233.40588  -0.90731936   -9.3601745    198.09797  -0.69789203   -19.667668  -0.90246607  -0.90338532   -469.91629 
    7200    472.07109   -203.89585   -184.36159   -193.67977     303.3243    2.4990441  -0.79602751   -19.314957   -233.42693  -0.86524095   -19.362995    2.5669911  -0.85697004   -8.9136509   -233.44175  -0.88400446    -9.349959    198.10384  -0.70561493   -19.647009   -0.9022375  -0.90310483    -469.9164 
    7300    472.07109   -212.35262   -187.63037   -189.31452     303.3459    2.5196146  -0.77700341   -19.310226   -233.42437  -0.85095639   -19.328522    2.5609664  -0.81642801   -8.9337863   -233.43309  -0.86294399   -9.3307949    198.10178  -0.71094572   -19.666284  -0.90200893  -0.90282434   -469.91651 
    7400    472.07109   -190.93798   -215.89586    -187.1631     303.6909    2.5244661  -0.77166946   -19.291354   -233.41618  -0.85343318   -19.330332    2.5757585  -0.81650474   -8.8875748   -233.41148  -0.87020347   -9.3248143    198.10123  -0.69139252   -19.649973  -0.90178037  -0.90254385   -469.91662 
    7500    472.07109   -195.60667    -177.4165   -170.98692    303.72598    2.5027905   -0.7542472   -19.288728   -233.41949  -0.85958391   -19.343814    2.5438242   -0.7918649   -8.9035259   -233.40333  -0.87706356   -9.3202138    198.10276  -0.68728246   -19.666406   -0.9015518  -0.90226337   -469.91674 
    7600    472.07109   -184.16268   -201.85674   -160.73097    303.74223     2.489167  -0.78507821   -19.281249    -233.4171  -0.86602804   -19.343738    2.5228579  -0.84748142   -8.9064857   -233.40381   -0.8691759   -9.3179182    198.11619  -0.68978771   -19.683204  -0.90132323  -0.90198288   -469.91685 
    7700    472.07109   -195.47726   -164.85214   -143.89366    303.68609    2.4920847  -0.74465043   -19.265541   -233.41009  -0.85214233   -19.368774    2.5313012  -0.80149182   -8.8997691   -233.37779  -0.84993764   -9.3581676    198.08625  -0.66590513   -19.707804  -0.90109466  -0.90170239   -469.91696 
    7800    472.07109   -164.17985   -167.32089   -127.47111    303.70063    2.5143881  -0.70955396   -19.314791   -233.40002  -0.85714063   -19.348898    2.5549177  -0.74455108   -8.9402048   -233.34473  -0.84437937   -9.3489337    198.09719  -0.66808765   -19.716953   -0.9008661   -0.9014219   -469.91707 
    7900    472.07109    -145.9246   -150.00391   -130.30059    303.70394    2.5115713  -0.71377888     -19.3136   -233.40396  -0.87476134   -19.331667    2.5804719  -0.75221094   -8.9342786   -233.36919  -0.85936792   -9.3271683    198.10755  -0.68051619   -19.688935  -0.90063753  -0.90114142   -469.91718 
    8000    472.07109   -127.20558   -115.19835   -104.44606    303.61892    2.5123571  -0.75471963   -19.303353   -233.40906  -0.89643975   -19.337242    2.5775459  -0.79457058   -8.9378281   -233.39456  -0.85602446   -9.3592746    198.09799  -0.70337376   -19.693256  -0.90040896  -0.90086093    -469.9173 
    8100    472.07109   -130.99916   -115.18758   -51.807012    303.34246    2.5194112  -0.74421961   -19.301105   -233.42369  -0.90634576   -19.346452     2.587847  -0.81099717   -8.9646349   -233.40956  -0.87224475   -9.3688298    198.08725  -0.68247884   -19.695702  -0.90018039  -0.90058044   -469.91741 
    8200    472.07109   -117.42918   -113.51346   -65.496866    303.64549    2.5326159  -0.70185515   -19.324561   -233.42608  -0.89431767    -19.33994    2.6081511   -0.7656238   -8.9760985   -233.41167  -0.89823446   -9.3618361    198.07408  -0.65648966   -19.736427  -0.89995183  -0.90029996   -469.91752 
    8300    472.07109   -125.78081   -166.15002    -116.6079    303.91253    2.5427001  -0.68630215   -19.314623   -233.42426  -0.89799594   -19.374213     2.610763  -0.74541066   -8.9395775   -233.44342  -0.89531541   -9.3947036    198.07908  -0.63739299   -19.750273  -0.89972326  -0.90001947   -469.91763 
    8400    472.07109   -143.30462   -140.04308   -106.72701    303.72702    2.5247602  -0.66690305   -19.318675   -233.42809  -0.85459699   -19.383436    2.5847151  -0.72605404   -8.9216544   -233.45418  -0.87126148   -9.3829221    198.06394  -0.63656884   -19.751638  -0.89949469  -0.89973898   -469.91774 
    8500    472.07109   -111.63144   -96.900948   -61.919955    303.46555    2.5182611  -0.68342464   -19.322626   -233.41881  -0.85887994   -19.428833    2.5780734  -0.70241848    -8.922321   -233.44586  -0.86038113    -9.421085    198.06231  -0.62030519   -19.770014  -0.89926612  -0.89945849   -469.91785 
    8600    472.07109   -78.662333   -93.584671   -24.664316    303.69838    2.5229192  -0.66233287   -19.339099   -233.39305  -0.85357553   -19.426422    2.5849359  -0.66212671    -8.953041   -233.43495  -0.85405768   -9.4121988    198.07148  -0.63095778    -19.76196  -0.89903756  -0.89917801   -469.91797 
    8700    472.07109   -85.530936   -35.867976   -9.1901262    303.69543    2.5166113  -0.63900295    -19.35032   -233.39857  -0.86293597   -19.395166    2.5861252  -0.67256413   -8.9686387    -233.4262  -0.85136694   -9.3861904    198.07596  -0.64477368   -19.743183  -0.89880899  -0.89889752   -469.91808 
    8800    472.07109   -32.981806   -34.895101    28.975612     303.3808    2.5071074  -0.65748593    -19.35557   -233.40765  -0.87391101   -19.424219    2.5739704  -0.70972909   -8.9815425    -233.4114  -0.88962736   -9.4273099    198.06292  -0.64855613     -19.7641  -0.89858042  -0.89861703   -469.91819 
    8900    472.07109   -56.642886   -43.745179   -3.3468298    303.63169    2.4823674  -0.64399969    -19.34812   -233.42143  -0.86081552   -19.450365     2.539283  -0.70327721   -9.0040762   -233.42762  -0.88190881   -9.4540959    198.05258  -0.65505738   -19.764348  -0.89835185  -0.89833655    -469.9183 
    9000    472.07109   -40.786582   -54.626175    12.426689    303.83534    2.4789492  -0.62803832    -19.35949   -233.40815  -0.84654335   -19.496114    2.5492756  -0.68778156   -9.0230746   -233.40769  -0.85304157   -9.4749775    198.05878  -0.65383937   -19.753569  -0.89812329  -0.89805606   -469.91841 
    9100    472.07109   -30.920285   -45.169722    15.509205    303.91442    2.4560359  -0.64280652   -19.356421   -233.37216  -0.84804541   -19.502324    2.5160438  -0.69992445   -9.0063776   -233.36846  -0.83109174   -9.4911044    198.08707  -0.64549078   -19.788063  -0.89789472  -0.89777557   -469.91853 
    9200    472.07109    -18.44372   -10.607371     39.26161    303.49649    2.4444141  -0.64813024   -19.384502   -233.37992  -0.85068992   -19.510348    2.4829747  -0.69022533   -9.0113224   -233.37763  -0.84367554   -9.5004822    198.09188  -0.64415578   -19.829571  -0.89766615  -0.89749508   -469.91864 
    9300    472.07109   -62.323176   -53.488423    17.881858    303.73185    2.4428138  -0.64589329   -19.391367   -233.38694  -0.86252726   -19.566234    2.4818494  -0.68853275   -9.0365358   -233.37302  -0.85595324   -9.5701897    198.11049  -0.67383529   -19.864772  -0.89743759   -0.8972146   -469.91875 
    9400    472.07109   -72.796201   -14.913892    21.239235     303.6615    2.4386101  -0.64192593   -19.388304   -233.38403  -0.86882973   -19.582186    2.4762543   -0.6714392   -9.0206641   -233.36358  -0.87342421   -9.6060846     198.1285  -0.66725928   -19.890145  -0.89720902  -0.89693411   -469.91886 
    9500    472.07109   -63.207289   -24.639348    39.504428    303.89703    2.4350741  -0.65466838   -19.356754   -233.36716  -0.83441305   -19.557327    2.4662358  -0.70162213   -8.9928859   -233.35308  -0.83896072   -9.5841903    198.14565  -0.71032046   -19.861579  -0.89698045  -0.89665362   -469.91897 
    9600    472.07109   -34.147791   -18.814365    52.888881    303.81468    2.4433562  -0.68445421    -19.37134   -233.35926  -0.87072508   -19.554475    2.4740074  -0.73187084   -9.0095079   -233.36068  -0.86807994    -9.571512    198.18599  -0.67957284   -19.881076  -0.89675188  -0.89637313   -469.91908 
    9700    472.07109   -12.248523    1.9755576    66.793518    303.84263    2.4599848  -0.69080912   -19.384463   -233.36638  -0.86555759   -19.559757    2.4900387  -0.70409751   -9.0351926   -233.36653  -0.86861651   -9.5687122    198.15946  -0.66457694   -19.936824  -0.89652332  -0.89609265    -469.9192 
    9800    472.07109    4.5642914    19.306497    74.697085    303.55686    2.4749394  -0.67913335   -19.372462   -233.38258  -0.89267495   -19.576944    2.5033993  -0.71639703   -9.0293373   -233.37309  -0.90283538   -9.5972487    198.15583  -0.65431529   -19.947737  -0.89629475  -0.89581216   -469.91931 
    9900    472.07109   -1.8846347      32.2554    93.174506    303.82474    2.4964358  -0.67619243   -19.360576   -233.38249  -0.91432767   -19.580407    2.5427016  -0.72035816   -9.0139128   -233.38424  -0.92919876   -9.5846542    198.16545  -0.66384628   -19.948757  -0.89606618  -0.89553167   -469.91942 
   10000    472.07109    22.342021    61.787762    78.781956    303.75932    2.4790275  -0.67420251   -19.348597   -233.34825  -0.96449114   -19.603544    2.5483476  -0.71843334    -8.995465   -233.36788  -0.97257026   -9.5990287    198.19136  -0.69101085   -19.963843  -0.89583761  -0.89525119   -469.91953 
   10100    472.07109   -6.3506457    40.587394    89.876036    303.76829    2.4870977  -0.66202492   -19.397709   -233.35845  -0.98178974   -19.601655    2.5754083   -0.7070462   -9.0215001   -233.37956   -1.0163287   -9.5941474    198.19343  -0.66901163   -19.998722  -0.89560905   -0.8949707   -469.91964 
   10200    472.07109   0.71180832  -0.49349914    82.788989    303.95745    2.4833365  -0.65314116   -19.422779   -233.36983  -0.96783671   -19.577619    2.5683292  -0.71180459    -9.057138   -233.37812  -0.99041516   -9.5847186    198.20773  -0.66173437    -19.98514  -0.89538048  -0.89469021   -469.91976 
   10300    472.07109   -9.6518689    12.153129    83.471982    304.15057    2.4989943  -0.63099609   -19.389034   -233.35848  -0.92537469    -19.57667    2.6006096   -0.6801827   -9.0308099   -233.36565  -0.94297506   -9.5542813    198.19623   -0.6878756   -19.986005  -0.89515191  -0.89440972   -469.91987 
   10400    472.07109   -18.474789    38.303039    95.574598    304.01458    2.5083572   -0.6359675   -19.399012   -233.34714  -0.90551449   -19.604905     2.614957  -0.68933441   -9.0381686   -233.36403  -0.87994921    -9.578757    198.19055  -0.69517447   -19.971851  -0.89492334  -0.89412924   -469.91998 
   10500    472.07109    47.896553    72.033116    121.07982    303.47234    2.4850644  -0.63138453   -19.364726   -233.34643  -0.89040552   -19.634193    2.5505445  -0.67316374   -9.0144389   -233.36711  -0.87178141    -9.618535    198.22485  -0.70385588   -19.959898  -0.89469478  -0.89384875   -469.92009 
   10600    472.07109    30.326842    59.574721    126.37084    303.50007    2.5137157  -0.63593398   -19.363313   -233.35086  -0.89700211   -19.663406    2.5661741  -0.65134286   -9.0322343   -233.35329  -0.88492635   -9.6270243    198.21767  -0.71419991   -19.953004  -0.89446621  -0.89356826    -469.9202 
   10700    472.07109    24.563539    65.369043    120.39276    303.44441    2.5082529  -0.64811312   -19.394876   -233.33412  -0.88162175   -19.666856    2.5609186  -0.68628034   -9.0392976    -233.3165  -0.87732487    -9.640844    198.21007  -0.72244678   -19.947635  -0.89423764  -0.89328777   -469.92031 
   10800    472.07109    24.964897    34.234227    122.89978    303.71813    2.5097241  -0.63057305   -19.386678   -233.34859   -0.8499871   -19.676031    2.5616232   -0.6827614   -9.0282386   -233.31861  -0.85664553   -9.6636141    198.22068  -0.72455489   -19.944151  -0.89400907  -0.89300729   -469.92043 
   10900    472.07109    34.749275    35.081884    100.17484    304.26176    2.5370063  -0.61127574   -19.385885   -233.30855    -0.860583   -19.660308    2.6138231  -0.66519304   -9.0244859   -233.30649  -0.85405894   -9.6649762    198.23733  -0.69219653   -19.960686  -0.89378051   -0.8927268   -469.92054 
   11000    472.07109    64.312596    89.998073    146.46514    303.56687    2.5332193   -0.6005251   -19.393827   -233.30441  -0.86868568   -19.661232     2.625154  -0.63037489   -9.0175309   -233.33468  -0.85023314   -9.6705965    198.25587  -0.66598173   -19.957915  -0.89355194  -0.89244631   -469.92065 
   11100    472.07109    59.303378    59.538989      154.164    303.75353    2.5415941  -0.59893351    -19.39277   -233.30681  -0.86667425   -19.654768    2.6374702  -0.63275319   -9.0215607   -233.34168  -0.87595653   -9.6498769    198.26167  -0.64744576   -19.944744  -0.89332337  -0.89216583   -469.92076 
   11200    472.07109     48.18872    72.676963    164.48014    303.64447    2.5447106  -0.62440321   -19.387218   -233.30836  -0.86390746   -19.646659    2.6356407  -0.66115066   -9.0313292   -233.32921  -0.87768873    -9.650584    198.25995  -0.63539131   -19.940968   -0.8930948  -0.89188534   -469.92087 
   11300    472.07109    75.834662    79.143191    138.35134    303.71374    2.5453541  -0.63304747   -19.373766   -233.32241  -0.84937036   -19.634987     2.653341  -0.69654573   -8.9859489    -233.3454  -0.86396256   -9.6266454     198.2636  -0.62480897   -19.914991  -0.89286624  -0.89160485   -469.92099 
   11400    472.07109    57.698704    110.46384    177.81113    303.73843    2.5571438  -0.63554026   -19.341937   -233.30339  -0.83596962   -19.625983    2.6355123  -0.70420204   -9.0030663   -233.33595  -0.84777278   -9.6183604    198.26403   -0.6245614   -19.946058  -0.89263767  -0.89132436    -469.9211 
   11500    472.07109    82.306109    113.87478    189.53339    303.80274     2.540713  -0.66580474    -19.36172   -233.28695  -0.81923638   -19.595633    2.6090577  -0.73451496   -9.0140576    -233.3076  -0.81667682   -9.6079733    198.22991  -0.60931915   -19.946852   -0.8924091  -0.89104388   -469.92121 
   11600    472.07109    81.172778    116.75507    239.54452    303.98044    2.5250706  -0.68085939   -19.389195   -233.27604  -0.80684579   -19.581744    2.5785492  -0.73064169   -9.0302545   -233.28727  -0.80306307   -9.5624486     198.2182  -0.62115325   -19.956185  -0.89218054  -0.89076339   -469.92132 
   11700    472.07109     128.2069    155.74559    283.98508    303.47031    2.5242036  -0.67519664   -19.406612   -233.26517  -0.81849074   -19.589789    2.5757278  -0.72831481   -9.0304598    -233.2425  -0.82207271   -9.5601914    198.20264  -0.60241429   -19.963529  -0.89195197   -0.8904829   -469.92143 
   11800    472.07109    149.36109    160.16439    286.76672    303.78503    2.5060209  -0.66916415    -19.43885   -233.24601  -0.82060387   -19.586832    2.5494267  -0.72488348   -9.0728669   -233.22985   -0.8339565   -9.5748593    198.20959  -0.59583718   -19.991956   -0.8917234  -0.89020241   -469.92154 
   11900    472.07109    143.05052    164.41269    299.19465    304.05363    2.4833731  -0.68998496   -19.455568   -233.22841  -0.81131965   -19.579538    2.5229632  -0.72145133   -9.1284882   -233.20717  -0.82953824   -9.5990952    198.22041  -0.56329426   -19.978872  -0.89149483  -0.88992193   -469.92166 
   12000    472.07109    181.94608    197.58101    343.50725    303.67775     2.471943  -0.72576302   -19.474346   -233.23094  -0.79101153    -19.59189     2.534836  -0.74065677   -9.1187735   -233.19703  -0.79725551   -9.5979663    198.22752  -0.55933935     -19.9733  -0.89126627  -0.88964144   -469.92177 
   12100    472.07109    204.48129    208.74716    360.89883    303.62312    2.4793065  -0.72212039   -19.484337   -233.26001  -0.80031062   -19.564568    2.5262192  -0.74109816   -9.1351546   -233.26321  -0.79813733   -9.5426573    198.22944  -0.57132207   -19.952032   -0.8910377  -0.88936095   -469.92188 
   12200    472.07109    242.93236    216.09421    362.36113    303.58704    2.4798301   -0.7583423   -19.502878    -233.2677   -0.7915315   -19.573109    2.5478668  -0.80701694    -9.150634   -233.30361  -0.79689276   -9.5487817    198.22592  -0.58545187   -19.938918  -0.89080913  -0.88908047   -469.92199 
   12300    472.07109    240.78083    221.72753    390.21793    303.70139    2.4680709  -0.74221043   -19.529186    -233.2873  -0.75792712   -19.558897    2.5368633  -0.77990311   -9.1677419   -233.31686  -0.73163932    -9.565056    198.25478  -0.57680252   -19.913379  -0.89058056  -0.88879998    -469.9221 
   12400    472.07109     260.3427    277.26148    446.85384    303.71985    2.4880048  -0.74509277   -19.567855   -233.29115  -0.74958656   -19.562442    2.5521235  -0.80329614    -9.227349   -233.31675   -0.7157699   -9.5710657    198.24653  -0.59076869   -19.933407    -0.890352  -0.88851949   -469.92221 
   12500    472.07109    285.08656    282.68462    448.88735    303.84025     2.506274  -0.73567615   -19.599548   -233.29435  -0.73966313   -19.569649    2.5807151  -0.78506399   -9.2805082    -233.3026  -0.71384812   -9.5824242    198.24934  -0.62902199   -19.952027  -0.89012343    -0.888239   -469.92233 
   12600    472.07109    260.29856    280.83066    433.20008    303.96695    2.4984653  -0.73452815   -19.608701   -233.29808  -0.73837083   -19.562778    2.5667221  -0.78950943   -9.2882258   -233.31353  -0.73701925   -9.5751872    198.24561  -0.61420636    -19.93192  -0.88989486  -0.88795852   -469.92244 
   12700    472.07109      266.017    258.09335    446.05804    303.72326    2.5153582  -0.71854222   -19.575583   -233.30345  -0.72637851   -19.540574    2.5766469  -0.76148621   -9.2676574   -233.31029  -0.73406591    -9.554418     198.2362  -0.62200471   -19.918578  -0.88966629  -0.88767803   -469.92255 
   12800    472.07109    266.41728    243.93347     452.2308    303.74704    2.5186314  -0.70987802   -19.579899     -233.299  -0.74849499   -19.531839    2.5885646  -0.74306774   -9.2602329   -233.31441  -0.74842907   -9.5420116    198.23852  -0.61530183   -19.912403  -0.88943773  -0.88739754   -469.92266 
   12900    472.07109    253.06209    268.18604    416.96048    303.75227    2.5363828  -0.73437932   -19.556384   -233.29199  -0.79752574   -19.497369    2.6081477  -0.78706869   -9.2163795   -233.31415   -0.7685953   -9.4974692    198.25358  -0.61454894   -19.900969  -0.88920916  -0.88711705   -469.92277 
   13000    472.07109    263.76782     264.5398    399.72565    304.10759    2.5329855  -0.75277162   -19.566177   -233.28625  -0.79743005    -19.48382    2.6114524  -0.81901805   -9.2055635   -233.29699  -0.77961287   -9.4914678    198.24731  -0.61394812   -19.885039  -0.88898059  -0.88683657   -469.92289 
   13100    472.07109    232.18286    256.86448    408.63954     304.0578     2.525536  -0.73945559   -19.546386   -233.26176  -0.79174469   -19.445109    2.5934639  -0.77430934   -9.1897659   -233.26547  -0.80440751   -9.4385498    198.23567  -0.61448434   -19.862865  -0.88875202  -0.88655608     -469.923 
   13200    472.07109    235.46843    264.08916    391.48282    303.78139    2.5393815  -0.71925169   -19.546959   -233.24572  -0.79882351   -19.474292    2.5917809  -0.77411367   -9.1989204   -233.24021  -0.81963696    -9.460106    198.21693  -0.59614637   -19.839325  -0.88852346  -0.88627559   -469.92311 
   13300    472.07109    227.19519    249.11846     400.2167    303.79241     2.548947  -0.72978733   -19.548095    -233.2318   -0.7850382     -19.4573    2.5845962  -0.81040309   -9.1723213   -233.20768  -0.82100068   -9.4406894      198.205  -0.60299051   -19.819055  -0.88829489  -0.88599511   -469.92322 
   13400    472.07109    237.50324    270.35457    411.43891    303.85934    2.5514985   -0.7414334   -19.566902   -233.23584  -0.80403725   -19.448436    2.5994417  -0.82398124   -9.1977461   -233.19367  -0.81378869   -9.4704991     198.1994  -0.60989195    -19.80109  -0.88806632  -0.88571462   -469.92333 
   13500    472.07109    217.52892    234.31475     402.7963    303.81416    2.5488434  -0.74482032   -19.574695   -233.26021  -0.79020683   -19.457776     2.597017   -0.7825973   -9.2334658   -233.21865  -0.79626481   -9.4666622    198.18794  -0.62120451   -19.817488  -0.88783775  -0.88543413   -469.92344 
   13600    472.07109    244.91211    234.37486     377.6728    303.72224    2.5416198  -0.73863173   -19.594153   -233.26338  -0.80893173   -19.462359    2.5977334  -0.77267557    -9.255873    -233.2303  -0.80554719   -9.4939746    198.19126  -0.63914627   -19.788861  -0.88760919  -0.88515364   -469.92356 
   13700    472.07109    208.13692    184.74526    366.92511    304.04896    2.5382876  -0.74414764   -19.588023   -233.27741  -0.84948514   -19.451405     2.598581  -0.78396524   -9.2620343     -233.261  -0.84466258   -9.4485631    198.18181  -0.64515973   -19.785044  -0.88738062  -0.88487316   -469.92367 
   13800    472.07109    191.29617    202.71044    337.91904    303.98051    2.5444319  -0.74955746   -19.589843   -233.26281  -0.87042591   -19.464107    2.5933794  -0.79755641   -9.2740834    -233.2528  -0.87915221    -9.476257    198.17436  -0.64403766   -19.789424  -0.88715205  -0.88459267   -469.92378 
   13900    472.07109    169.23691    166.30755    327.67169    304.03345    2.5479447   -0.7702069   -19.597862   -233.25533  -0.84824046   -19.447888    2.5879829  -0.82669119   -9.2767896   -233.27565  -0.86172553   -9.4838409    198.15585  -0.64153394   -19.794303  -0.88692348  -0.88431218   -469.92389 
   14000    472.07109    173.86787    197.40148    326.58393    303.90167    2.5541638  -0.74942275   -19.619441   -233.27538  -0.83355574   -19.440705    2.6025999  -0.79527148   -9.2848708   -233.27997  -0.82042174   -9.4519017    198.17211  -0.63317753   -19.792358  -0.88669492  -0.88403169     -469.924 
   14100    472.07109    184.74625    193.48775    305.31418    303.89642    2.5639079  -0.74624253    -19.61982   -233.31183  -0.81513514   -19.435876    2.6240527  -0.81869222   -9.2633124   -233.31083   -0.8180273     -9.42189     198.1821  -0.63787137   -19.803519  -0.88646635  -0.88375121   -469.92412 
   14200    472.07109    186.76719    196.79494     315.8437    303.61444    2.5565998   -0.7620223   -19.599063   -233.30627  -0.81294694   -19.452526    2.6190984  -0.82510755   -9.2437244   -233.32616  -0.80933724   -9.4232331    198.15113  -0.61349906   -19.791352  -0.88623778  -0.88347072   -469.92423 
   14300    472.07109     170.6044    154.64301    316.26891    303.99146    2.5794344   -0.7340451   -19.638315   -233.33555  -0.80272072    -19.44174    2.6383493  -0.79157087   -9.2701663   -233.34697  -0.79105746   -9.4407575    198.13135  -0.63825165   -19.787425  -0.88600922  -0.88319023   -469.92434 
   14400    472.07109     205.8578    179.71201    322.81481     303.7014     2.586359  -0.72860555   -19.631501   -233.32291  -0.78000878   -19.449364    2.6521351  -0.77262712   -9.2861627   -233.33574  -0.78275864   -9.4567441    198.11526  -0.65723586   -19.776707  -0.88578065  -0.88290975   -469.92445 
   14500    472.07109    167.20196    176.65536    354.90961     304.1651     2.598937  -0.67115555   -19.641129   -233.32776  -0.77225249   -19.439663    2.6518261  -0.72140899   -9.2724417   -233.32728  -0.76109486   -9.4550413    198.10836    -0.677771   -19.792394  -0.88555208  -0.88262926   -469.92456 
   14600    472.07109    190.04201    196.77231    390.26815    303.68051    2.5872165  -0.66216961   -19.656172   -233.31796  -0.76420664   -19.449912    2.6508812  -0.69703876   -9.2775301   -233.32609  -0.75868553   -9.4518511    198.10288  -0.67195365   -19.810756  -0.88532351  -0.88234877   -469.92467 
   14700    472.07109    222.31199    200.62585    352.23185    303.99297    2.5954091  -0.65730386   -19.670915   -233.32606  -0.78737414   -19.458025    2.6543536  -0.69013081   -9.2845414   -233.32644  -0.77653824   -9.4557541    198.11634  -0.66110906   -19.792962  -0.88509495  -0.88206828   -469.92479 
   14800    472.07109    244.53063     191.2279    367.55778    303.90417    2.5998982  -0.65957765   -19.664998   -233.32981  -0.79564222   -19.467415    2.6727591  -0.70607925   -9.2682076   -233.32329  -0.79613747   -9.4644973    198.14051  -0.65057396   -19.781135  -0.88486638   -0.8817878    -469.9249 
   14900    472.07109     217.0387    227.54442    378.34916    303.81716    2.6010086   -0.6508725   -19.691438   -233.34239  -0.81577072   -19.485068    2.6619878  -0.67165247   -9.3291235   -233.33581   -0.8097698   -9.4667053     198.1563  -0.62411758   -19.785191  -0.88463781  -0.88150731   -469.92501 
   15000    472.07109    230.79392    205.93761    360.16321    304.21887    2.6117961  -0.62239254   -19.704538   -233.34796  -0.79751654   -19.486091    2.6903042    -0.633493   -9.3850004   -233.34598  -0.79715206   -9.5110128    198.13823  -0.62467276   -19.813376  -0.88440924  -0.88122682   -469.92512 
   15100    472.07109    229.14974    224.40526    401.96477    303.93684    2.6244794  -0.62762206   -19.734506   -233.34065  -0.80222362   -19.490364    2.7125022  -0.66515608   -9.4228888   -233.34536  -0.81835507   -9.5198057    198.13288   -0.6108523   -19.815656  -0.88418068  -0.88094633   -469.92523 
   15200    472.07109    234.67486    209.15111    368.32972    303.41946    2.6179677  -0.62622581   -19.730977   -233.33962  -0.81884281   -19.500573    2.7097131  -0.66799391   -9.4190291   -233.33704  -0.82996875   -9.5418172    198.11111  -0.62718357   -19.817079  -0.88395211  -0.88066585   -469.92535 
   15300    472.07109    185.56983    189.21019    300.97543    304.14955     2.623956  -0.60970224   -19.751854   -233.32576  -0.82103286   -19.501497    2.6760295  -0.64929055    -9.407641   -233.32169  -0.81557002   -9.5285304    198.11661  -0.63484239   -19.829474  -0.88372354  -0.88038536   -469.92546 
   15400    472.07109    200.79995    207.59165    310.66407    303.87145     2.597343   -0.6051518   -19.749105   -233.34234  -0.85330593    -19.50292    2.6475742  -0.64239366   -9.4094287    -233.3214  -0.85568029   -9.5329743    198.12652   -0.6350497   -19.813679  -0.88349497  -0.88010487   -469.92557 
   15500    472.07109    191.68324    179.74056     306.2103    303.61563    2.5998441  -0.62280444   -19.752285   -233.34966  -0.86799817   -19.497177     2.634449  -0.64017789   -9.4104593   -233.31884  -0.86973155   -9.5091997    198.14396  -0.65466931   -19.811756  -0.88326641  -0.87982439   -469.92568 
   15600    472.07109    138.17036    143.70123    248.05605    304.13307    2.5755556  -0.63254062   -19.750132   -233.35131  -0.85895705    -19.46956    2.6055973  -0.66991358   -9.4006257   -233.32608  -0.86061022   -9.4660581    198.14644  -0.67173065   -19.804373  -0.88303784   -0.8795439   -469.92579 
   15700    472.07109    153.22291    160.30391    227.73623    303.59986    2.5681823  -0.63735209   -19.748076   -233.35484  -0.86272843   -19.467059    2.5831461    -0.665637   -9.3874312   -233.33991  -0.86012304   -9.4685888    198.15456  -0.66569537   -19.796465  -0.88280927  -0.87926341    -469.9259 
   15800    472.07109    152.25807    151.05479    255.68336    303.79052    2.5718656  -0.62636665   -19.721532   -233.33857  -0.87663645   -19.481011    2.5848755  -0.69161711   -9.3715914   -233.34455  -0.87287445   -9.4811727    198.14826   -0.6622689   -19.803517   -0.8825807  -0.87898292   -469.92602 
   15900    472.07109    130.29985    179.43836    277.01977    303.74432    2.5801148  -0.67726392   -19.691626    -233.3468  -0.87340996   -19.486587    2.6040527  -0.75130224   -9.3333613   -233.36938  -0.87827076   -9.4816338     198.1586  -0.66063153   -19.799393  -0.88235214  -0.87870244   -469.92613 
   16000    472.07109    184.48478    168.96593    268.56259    303.66186    2.5831474  -0.66180535   -19.696038   -233.33165  -0.89035859   -19.471113    2.6152743  -0.70830778   -9.3138297   -233.35954  -0.89687326   -9.4757361    198.13795  -0.66963108   -19.790582  -0.88212357  -0.87842195   -469.92624 
   16100    472.07109    171.31278    182.22524    305.57432    303.61618    2.6025915  -0.64772017   -19.710471   -233.31312  -0.88705841   -19.464726    2.6289373  -0.68636412   -9.3163315   -233.34351  -0.90783372   -9.4746981    198.12446  -0.67837474   -19.771169    -0.881895  -0.87814146   -469.92635 
   16200    472.07109    161.09878    150.43366    311.95616    303.94225    2.5956623  -0.66117903   -19.734379   -233.29038  -0.90333278   -19.440025    2.6382254  -0.70726024   -9.3582388   -233.29649  -0.92312886    -9.440516    198.13703  -0.67680562   -19.783875  -0.88166643  -0.87786097   -469.92646 
   16300    472.07109    161.94863    184.41473    281.00175    303.66613    2.5796098  -0.67588091   -19.722815   -233.30925  -0.91091404   -19.431197    2.6305552  -0.71894373   -9.3362246   -233.29014  -0.92467821   -9.4329064    198.14687   -0.6657813   -19.789844  -0.88143787  -0.87758049   -469.92658 
   16400    472.07109    166.51969    169.85306    300.86054    303.62797    2.5926251  -0.68027321   -19.731697   -233.31841  -0.92550244   -19.444789    2.6370071  -0.69853342   -9.3310295   -233.29609  -0.93177995   -9.4594454    198.12821  -0.66464784   -19.809958   -0.8812093      -0.8773   -469.92669 
   16500    472.07109    173.97871    166.28138    293.41841    303.73415    2.5945694  -0.65200083   -19.720637   -233.33229  -0.90978194   -19.429468    2.6368422  -0.67634892   -9.3282821   -233.30404  -0.89649181   -9.4388216    198.12861  -0.66677012   -19.824031  -0.88098073  -0.87701951    -469.9268 
   16600    472.07109    191.64134    177.88359    304.12353    303.73221    2.5869914  -0.66247412   -19.722755   -233.28636  -0.88043271   -19.412457    2.6219778  -0.72265893   -9.3520939   -233.27287  -0.86030429   -9.4396823    198.13179  -0.65867322   -19.825793  -0.88075217  -0.87673903   -469.92691 
   16700    472.07109    171.68985    153.05189     295.1137    303.79368    2.5857774   -0.6682512    -19.72518   -233.25126  -0.87623806   -19.401732    2.6421497  -0.72085817   -9.3797187   -233.23957   -0.8608697   -9.4236214    198.12067  -0.64926464   -19.819048   -0.8805236  -0.87645854   -469.92702 
   16800    472.07109    146.61489    180.21582    295.40067    303.89813    2.5727299  -0.66609284   -19.715345   -233.24167  -0.87201741   -19.419032    2.6216667  -0.71683306   -9.3780859    -233.2391  -0.86625789   -9.4454013    198.10857  -0.65109115   -19.815947  -0.88029503  -0.87617805   -469.92713 
   16900    472.07109    177.03508    158.36274    283.73979    303.53889    2.5580271  -0.66083135    -19.72396   -233.25482  -0.86429229   -19.413657     2.604633  -0.73173739   -9.3873662   -233.23571  -0.87751939   -9.4430281    198.11983  -0.64785943   -19.809489  -0.88006646  -0.87589756   -469.92725 
   17000    472.07109    136.62864    193.87254    252.78518    303.59126    2.5619728  -0.68599807   -19.738109   -233.24847  -0.88367425   -19.414621     2.638347  -0.74525743   -9.3975727   -233.25839  -0.88218008   -9.4390317    198.14512  -0.68040491    -19.77961   -0.8798379  -0.87561708   -469.92736 
   17100    472.07109    113.50243    120.09583    222.20998    303.97084    2.5613009  -0.68950686   -19.753202   -233.24488  -0.87054761   -19.433873    2.6166803  -0.73495484   -9.4204337   -233.23931  -0.87854901   -9.4692443     198.1627    -0.666611   -19.767306  -0.87960933  -0.87533659   -469.92747 
   17200    472.07109     111.2326    123.83605    214.47573    303.93266    2.5477455  -0.68801453   -19.728557   -233.25359  -0.87503734   -19.459278    2.6170758  -0.75755141   -9.3968675    -233.2313  -0.86373832   -9.4857526    198.15256  -0.65723986   -19.728276  -0.87938076   -0.8750561   -469.92758 
   17300    472.07109    88.187714    92.694898    203.16058    303.81368     2.501595  -0.69867905   -19.699677   -233.24695  -0.86570489   -19.458356    2.5441581  -0.75686467   -9.3942892     -233.227  -0.87130853    -9.469265    198.14359  -0.65408091   -19.707776  -0.87915219  -0.87477561   -469.92769 
   17400    472.07109    85.463967    98.816208    184.43613    304.02396    2.5245711  -0.69350105   -19.687423   -233.23419   -0.8398736   -19.444781    2.5671204  -0.72899261   -9.3566413   -233.20927  -0.85584651   -9.4461773    198.15071  -0.64154975   -19.704243  -0.87892363  -0.87449513   -469.92781 
   17500    472.07109    80.742493     74.56044    179.05176    303.95053    2.5440211  -0.68172053   -19.662151   -233.23849  -0.86874723   -19.447625     2.577847  -0.69679532   -9.3093264    -233.2356  -0.88278238   -9.4632805    198.16164  -0.61878084   -19.692054  -0.87869506  -0.87421464   -469.92792 
   17600    472.07109    78.049231    97.525798    168.49435    303.93997    2.5370498  -0.69854478   -19.646721   -233.22722  -0.86841174   -19.454948    2.5551674  -0.72066174   -9.2770824    -233.2353  -0.86004331   -9.4729896    198.15391  -0.64106343   -19.699794  -0.87846649  -0.87393415   -469.92803 
   17700    472.07109    84.794431    98.548394    186.73067    303.68317    2.5561121  -0.71282444    -19.65488   -233.23336  -0.88954451   -19.466701    2.6009104  -0.72431165   -9.3172256    -233.2413  -0.86622503   -9.4846303    198.17821  -0.65729253   -19.700114  -0.87823792  -0.87365367   -469.92814 
   17800    472.07109    91.117026    87.662419    186.81821    303.69374    2.5424029  -0.74950343   -19.662223   -233.23806  -0.91027334   -19.416354    2.5958967  -0.77659539   -9.3122304   -233.23546  -0.88186719    -9.435442    198.20221  -0.68503659    -19.70488  -0.87800936  -0.87337318   -469.92825 
   17900    472.07109    81.790238    90.376815    191.12087    303.89071    2.5375922  -0.76167419   -19.686307   -233.24218  -0.92637593   -19.434684    2.5979653  -0.83642108   -9.3282821   -233.22542  -0.91704409   -9.4416969    198.20371  -0.67528149   -19.701531  -0.87778079  -0.87309269   -469.92836 
   18000    472.07109    97.309244    102.19398     191.9706    303.51359    2.5505889  -0.75550818    -19.66501   -233.25627  -0.94488292   -19.411423    2.6137289  -0.82333027   -9.3073536    -233.2387  -0.93631779   -9.4186158     198.2067  -0.65327662   -19.716531  -0.87755222   -0.8728122   -469.92848 
   18100    472.07109     92.09506    106.30177    193.20972    303.57248    2.5487873  -0.71255247   -19.665874   -233.26158  -0.93320357   -19.385871    2.6223714  -0.76595926   -9.3008604   -233.24165  -0.95128013   -9.3906265    198.22999  -0.66132294   -19.706459  -0.87732365  -0.87253172   -469.92859 
   18200    472.07109    66.682087    75.339889    174.85368    303.71919    2.5571103  -0.71239166   -19.622961   -233.24025    -0.924642   -19.367354    2.6319741  -0.76665649   -9.2745573   -233.22808   -0.9608195   -9.3572459    198.21401  -0.68510466   -19.712083  -0.87709509  -0.87225123    -469.9287 
   18300    472.07109    35.068005    43.288103     144.7701    303.89538    2.5670399  -0.71938335   -19.616431   -233.25859  -0.95212049   -19.357007    2.6176343  -0.76712573   -9.2737567   -233.25694  -0.97441234   -9.3546601    198.21084  -0.70454522   -19.699878  -0.87686652  -0.87197074   -469.92881 
   18400    472.07109    48.849133    83.411052    172.44779    303.73316     2.560001  -0.71782717   -19.599152   -233.27849  -0.92824866   -19.339439    2.6422213   -0.7894915   -9.2601384   -233.26895  -0.93043897    -9.350336    198.20514  -0.71122634   -19.700157  -0.87663795  -0.87169025   -469.92892 
   18500    472.07109    37.672948    69.217951    151.09065    303.52848    2.5339694  -0.70132815   -19.572319   -233.25384  -0.93207248    -19.32366     2.619105   -0.7626452   -9.2611193   -233.24752  -0.93815702   -9.3401596    198.21033  -0.72661046   -19.691837  -0.87640938  -0.87140977   -469.92904 
   18600    472.07109     32.62524    33.807826    151.13493    303.56812     2.543804  -0.70450777   -19.568114   -233.26796  -0.88461695   -19.331128    2.6346441   -0.7378912   -9.2386206   -233.27755  -0.90256894   -9.3193677     198.2138  -0.74328832   -19.684285  -0.87618082  -0.87112928   -469.92915 
   18700    472.07109    15.659351    23.043004    122.25649    303.75077    2.5475198  -0.71194027   -19.560443   -233.27009  -0.85642747   -19.320746    2.6230261  -0.74664005   -9.2262144   -233.26856  -0.86291463   -9.3074465     198.2154  -0.74560298   -19.701763  -0.87595225  -0.87084879   -469.92926 
   18800    472.07109    2.8941888    25.784529    121.72391    303.92235    2.5661196  -0.70119731     -19.5694    -233.2571  -0.88851416   -19.329735    2.6248714  -0.72859896   -9.2148332    -233.2585  -0.88889994   -9.3121905    198.18788  -0.76067701   -19.677754  -0.87572368  -0.87056831   -469.92937 
   18900    472.07109   -4.6071979    14.578179    87.759367    303.76295    2.5573168    -0.721041   -19.563245   -233.26043  -0.89580211   -19.325896    2.5971541  -0.74207586   -9.2187941   -233.26216  -0.89097463   -9.3067453    198.19425   -0.7686163   -19.658559  -0.87549511  -0.87028782   -469.92948 
   19000    472.07109   -13.618421    28.368479    94.728356    303.47308    2.5432218  -0.72442251   -19.573346   -233.25248  -0.90561617    -19.32967    2.5889304  -0.76913998   -9.2561663    -233.2451  -0.89003665   -9.3124753      198.193  -0.76472018   -19.653321  -0.87526655  -0.87000733   -469.92959 
   19100    472.07109    2.9812523    32.309937    106.59923    303.57325    2.5617107  -0.70820696   -19.582991   -233.25794  -0.87486865   -19.321964    2.5931237  -0.76202054   -9.2545918   -233.25944  -0.85454085     -9.31129    198.20888  -0.72990952   -19.648289  -0.87503798  -0.86972684   -469.92971 
   19200    472.07109    19.188537    35.916804    108.08232    303.57796    2.5818303  -0.71447718   -19.575253   -233.24987  -0.84738367   -19.316867     2.609009  -0.74518367   -9.2537288   -233.24831  -0.83593285   -9.3091369    198.22396  -0.71382225   -19.636809  -0.87480941  -0.86944636   -469.92982 
   19300    472.07109   -14.739855    39.381915    117.25341    303.41994     2.566837   -0.7360047   -19.573739   -233.26675  -0.87520904   -19.343329    2.5879127  -0.78801093   -9.2619403   -233.26949  -0.89238498   -9.3377258    198.23482  -0.70419223   -19.658407  -0.87458085  -0.86916587   -469.92993 
   19400    472.07109    -31.43375   -12.709063    59.154649     303.8481    2.5564526   -0.7407602   -19.569665   -233.26229   -0.8790078   -19.332264    2.6046595  -0.79588202   -9.2582394   -233.26759  -0.87884263   -9.3286527    198.24827  -0.69447275   -19.678587  -0.87435228  -0.86888538   -469.93004 
   19500    472.07109   -65.003589   -5.4185617    32.427419    303.68189    2.5389191   -0.7700177   -19.535245   -233.25068  -0.86121942   -19.363118    2.5953565  -0.80709139   -9.1948607   -233.24758  -0.87641442   -9.3471291    198.25151   -0.7017364   -19.669102  -0.87412371  -0.86860489   -469.93015 
   19600    472.07109   -33.566575   -27.664615    43.960005    303.34275    2.5286069  -0.75784109   -19.561881   -233.27736  -0.86915326    -19.37904     2.589823  -0.82107307   -9.2306454   -233.26284  -0.85832086   -9.3677462    198.24797  -0.69389656   -19.706082  -0.87389514  -0.86832441   -469.93027 
   19700    472.07109   -78.264142   -33.808833   0.11612051    303.57998    2.5377124  -0.75074801    -19.55181   -233.25446  -0.88508048   -19.390009    2.5988992  -0.81481141   -9.2232782   -233.24016  -0.88110743   -9.4253067    198.25844  -0.69770183   -19.702511  -0.87366658  -0.86804392   -469.93038 
   19800    472.07109    -82.23529   -61.074889   -32.693294    303.82272    2.5564534  -0.75103418   -19.522425   -233.23912  -0.90076822    -19.39822    2.6302217  -0.81916723   -9.1896942   -233.22496  -0.88944778   -9.4558658    198.25967  -0.67735502   -19.714324  -0.87343801  -0.86776343   -469.93049 
   19900    472.07109   -107.52934   -69.581782   -22.625323    303.83322    2.5476803  -0.79048066   -19.509232   -233.24938   -0.9013195   -19.394149    2.6446907  -0.85670177   -9.1625596   -233.23562  -0.90154101   -9.4068209    198.26107  -0.66358725   -19.726298  -0.87320944  -0.86748295    -469.9306 
   20000    472.07109   -88.803642   -36.837995   -9.0060809    303.51291    2.5630877  -0.80299154   -19.485148   -233.23044  -0.88635297    -19.37561    2.6469334  -0.86523936   -9.1509267   -233.21818  -0.89879033   -9.3777409    198.26689  -0.66678903   -19.720636  -0.87298087  -0.86720246   -469.93071 
   20100    472.07109   -50.062758   -50.144004    11.358743    303.23247    2.5838993  -0.79561188   -19.441874   -233.22253  -0.89236497   -19.399992      2.65503  -0.84471638   -9.0926203   -233.23118   -0.8959634   -9.3926936    198.24719  -0.68710725   -19.726981  -0.87275231  -0.86692197   -469.93082 
   20200    472.07109   -70.228415   -61.759254   -20.441796      303.617    2.6032164  -0.80179021   -19.470047   -233.20804  -0.88286623   -19.396755    2.6758138   -0.8275145   -9.1031363   -233.18979  -0.87714515   -9.3821961    198.25583  -0.68586495   -19.766017  -0.87252374  -0.86664148   -469.93094 
   20300    472.07109   -101.14581   -38.513174    -32.11663     303.8542     2.584973  -0.80200609   -19.478876   -233.19653  -0.91074933   -19.412335    2.6585185  -0.83328443   -9.1077465   -233.18398  -0.90585974   -9.4188358    198.25882  -0.68619508   -19.788317  -0.87229517    -0.866361   -469.93105 
   20400    472.07109   -92.691771   -76.427657   -49.109752    303.60013    2.5872117  -0.80867351   -19.482959   -233.19501  -0.90518142   -19.431614    2.6488642  -0.83645468   -9.1255224   -233.19879   -0.9045272   -9.4567621    198.26212  -0.70370235   -19.793129   -0.8720666  -0.86608051   -469.93116 
   20500    472.07109   -111.29393   -91.234266   -64.282933    303.59015    2.5784702  -0.81287087   -19.468972   -233.18769  -0.88525125    -19.41236    2.6611424  -0.82555783   -9.1204957   -233.19623  -0.90720809   -9.4145021    198.27053  -0.68807164   -19.800021  -0.87183804  -0.86580002   -469.93127 
   20600    472.07109    -142.1374   -100.88376   -100.35804    303.93037    2.5863718  -0.81166913   -19.465902   -233.19652  -0.86748515    -19.40796    2.6774615  -0.82938026   -9.1447713   -233.21349  -0.87271025   -9.3887767      198.254  -0.70416144   -19.812733  -0.87160947  -0.86551953   -469.93138 
   20700    472.07109   -155.86495   -120.07204   -105.65149    303.66745    2.5826503  -0.78966962   -19.492424   -233.19613  -0.87138613   -19.395241    2.6655281  -0.80145868   -9.1837383   -233.22177     -0.87316   -9.3908095    198.26227  -0.70715188   -19.810975   -0.8713809  -0.86523905    -469.9315 
   20800    472.07109    -136.6678    -120.2636   -116.58094     303.7629    2.5730576  -0.78905091   -19.467893   -233.20086  -0.85635643   -19.399514    2.6252663  -0.84527726   -9.1555531   -233.22167  -0.85108786    -9.392902    198.30601  -0.67943391   -19.793935  -0.87115233  -0.86495856   -469.93161 
   20900    472.07109   -169.54377   -131.00313   -105.80639    303.68838    2.5631207  -0.79363662    -19.45319    -233.1999  -0.88013362   -19.401699    2.6266753  -0.86608879   -9.1537171   -233.21752  -0.88661714   -9.3955125    198.30805  -0.66360176   -19.792894  -0.87092377  -0.86467807   -469.93172 
   21000    472.07109   -146.69481   -132.64987   -92.816683     303.6311    2.5641563  -0.81023015   -19.470564   -233.21171  -0.85464422   -19.417206    2.6357933  -0.88354901   -9.1441729   -233.23227  -0.86711546   -9.4159991    198.30614  -0.68308631   -19.787921   -0.8706952  -0.86439759   -469.93183 
   21100    472.07109   -148.94983   -130.30342   -128.27064    303.61951    2.5707605  -0.80135047   -19.434352    -233.2341  -0.88081003   -19.433607    2.6309756  -0.85104447   -9.1050024    -233.2608  -0.88266515   -9.4431256    198.31651  -0.69336175   -19.794099  -0.87046663   -0.8641171   -469.93194 
   21200    472.07109   -138.77598   -132.13407   -139.86501    303.54067      2.57177  -0.78965185    -19.41459    -233.2409  -0.89126778   -19.442248    2.6231662  -0.83648183   -9.0517453   -233.26663   -0.8847806   -9.4468963    198.30098  -0.71311179   -19.801346  -0.87023806  -0.86383661   -469.93205 
   21300    472.07109   -188.53658   -121.90098   -147.47561    303.39311    2.5650211  -0.81597092   -19.382471   -233.24053  -0.87507558   -19.452891    2.6111425  -0.86557423   -9.0458061   -233.26302  -0.88836619   -9.4581956    198.29262  -0.70302471    -19.81899   -0.8700095  -0.86355612   -469.93217 
   21400    472.07109   -179.84299   -128.86624   -150.21705    303.63178    2.5807621   -0.7893249   -19.367176   -233.25527   -0.9063186   -19.460593     2.622155  -0.85413334   -9.0166949   -233.24542   -0.8955933   -9.4625998    198.27478   -0.7247952   -19.803031  -0.86978093  -0.86327564   -469.93228 
   21500    472.07109   -181.59361    -136.7165   -161.55513    303.93737    2.5678192  -0.78707233   -19.350087   -233.24027  -0.88480489   -19.463156    2.6264736  -0.87423713   -8.9900734   -233.21159   -0.8724742   -9.4776383    198.26055  -0.70087406   -19.782711  -0.86955236  -0.86299515   -469.93239 
   21600    472.07109   -152.31811   -146.25847   -138.86013    303.54041    2.5693919  -0.77479507   -19.371851   -233.26582  -0.86968352   -19.431479    2.6184855  -0.82691591   -9.0151996   -233.25272  -0.84705246   -9.4346027    198.24787  -0.68912401   -19.773994   -0.8693238  -0.86271466    -469.9325 
   21700    472.07109   -179.50039   -151.35672   -181.53751    303.90545    2.5821705  -0.77139691   -19.367284   -233.26442  -0.89831066   -19.445295    2.6312519  -0.81260439   -9.0117766   -233.26889  -0.87067504   -9.4385048    198.24341  -0.70759701   -19.781118  -0.86909523  -0.86243417   -469.93261 
   21800    472.07109   -147.94781   -143.50178   -149.68525    303.45432    2.6009931  -0.79617923   -19.380085   -233.27694  -0.93169435    -19.43466    2.6473868  -0.84043731   -9.0458435   -233.28658  -0.90165761   -9.4244567    198.21355  -0.71798969   -19.799235  -0.86886666  -0.86215369   -469.93273 
   21900    472.07109   -177.61056   -201.40021   -164.17865    303.91223    2.5880903  -0.82743027   -19.353067   -233.28398  -0.94157291    -19.40185    2.6470752  -0.87655045    -9.054019   -233.32189  -0.92747357   -9.3884374    198.21174   -0.7236104   -19.811562  -0.86863809   -0.8618732   -469.93284 
   22000    472.07109   -172.80939   -172.89792   -135.23627    303.29969    2.5954738  -0.84037162   -19.337104   -233.27173  -0.97123475   -19.392817    2.6549931  -0.87731044   -9.0272376   -233.32296  -0.98257098   -9.3549376    198.21689  -0.71472249   -19.810679  -0.86840953  -0.86159271   -469.93295 
   22100    472.07109   -185.30969   -186.65297   -155.44569     303.7432    2.5724968   -0.8087081    -19.31268   -233.28585  -0.97412372   -19.369476    2.6318192  -0.82119406   -8.9954856   -233.32326   -1.0070025   -9.3312505    198.20737  -0.70234113   -19.807319  -0.86818096  -0.86131223   -469.93306 
   22200    472.07109    -172.6014    -171.5986   -183.89306     303.6043    2.5785611  -0.79829617   -19.294422    -233.2993  -0.93065204   -19.368898    2.6562951  -0.84735683   -8.9617989   -233.32404  -0.93826031   -9.3604394    198.19117  -0.70113001   -19.814045  -0.86795239  -0.86103174   -469.93317 
   22300    472.07109   -204.34464   -202.40987   -223.17465    303.63258    2.5427184  -0.78141529   -19.305921   -233.30723  -0.93198337   -19.373652    2.6198618  -0.83052406   -8.9651222   -233.31316  -0.92886823   -9.3930857    198.20019  -0.70161853    -19.83373  -0.86772382  -0.86075125   -469.93328 
   22400    472.07109   -206.18126   -232.38725   -244.39083    303.65157    2.5285894  -0.77361029   -19.322952   -233.30435  -0.94535301   -19.366823    2.5923494   -0.8292137   -8.9797415   -233.30416  -0.93567636   -9.3696461    198.19842  -0.72291447    -19.78753  -0.86749526  -0.86047076    -469.9334 
[...]
  999100    472.03358   -169.81657   -133.53031   -261.14253    303.79976     7.902743    2.2914911   -22.150088   -227.84368    2.2634763   -23.089792    7.7497718    2.3922836   -12.688959   -227.81669    2.2772572   -13.094979    203.86797    2.5840749   -23.140766    4.5481394    2.3345708   -473.73896 
  999200    472.03358   -158.82636   -163.03068   -258.04995    303.52346    7.9191699    2.2773338   -22.147238   -227.83809    2.2652388   -23.086746    7.7573628     2.368305   -12.677258   -227.82057    2.2792555   -13.110215    203.86549    2.5772273   -23.148916    4.5486885    2.3348971   -473.73935 
  999300    472.03358   -177.01848   -166.86751    -268.3395    303.61339    7.9588672     2.290389   -22.152422   -227.83104    2.2986575   -23.073909    7.8037245    2.3798417   -12.686714   -227.81481    2.3085728   -13.109604     203.8565    2.6045192   -23.120945    4.5492376    2.3352233   -473.73973 
  999400    472.03358   -177.79745   -143.97329   -272.07772    303.23634    7.9597159    2.2793084   -22.166723   -227.82722    2.3048771   -23.069508    7.7909435    2.3422513   -12.682058   -227.81671    2.3024566   -13.098469     203.8206    2.5970911   -23.083783    4.5497867    2.3355496   -473.74011 
  999500    472.03358   -186.19796   -209.34611   -256.48847      303.613    7.9646151    2.3052286   -22.183873    -227.8258    2.2971846   -23.068436    7.8061046    2.3597412   -12.696601   -227.80488    2.2873936   -13.111181     203.8292    2.5526173   -23.071551    4.5503358    2.3358759    -473.7405 
  999600    472.03358   -200.09334   -215.16052   -321.06648    303.51143    7.9455717    2.2830124   -22.192663   -227.81477    2.3133836   -23.073109    7.7992362    2.3342318   -12.699274   -227.79312    2.3006327   -13.085802    203.83793     2.540572   -23.060512    4.5508849    2.3362022   -473.74088 
  999700    472.03358   -215.66299   -221.00535   -329.98528    303.66996    7.9407674    2.2849119   -22.188198   -227.81846    2.3025777   -23.034161     7.794387    2.3621714   -12.693802   -227.80773    2.2825862   -13.045937    203.85421    2.5434217   -23.021742     4.551434    2.3365285   -473.74127 
  999800    472.03358   -207.28725   -223.24369      -327.14    303.51602    7.9512218    2.2792573    -22.18251    -227.8196    2.2982566   -23.028415    7.8112218    2.3663832    -12.69151   -227.78588     2.282584   -13.032881    203.84158    2.5461819   -23.017533    4.5519831    2.3368548   -473.74165 
  999900    472.03358   -238.39845   -233.54345   -320.87768    303.46412    7.9353189    2.2946737    -22.18694   -227.82863    2.3110086   -23.015086     7.783461    2.3862707   -12.708117   -227.80838    2.3233276   -13.015251    203.83618    2.5543272   -22.987117    4.5525322    2.3371811   -473.74204 
 1000000    472.03358   -206.40974   -229.49676   -361.16754    303.39665    7.9308176    2.2933294   -22.193671   -227.85095    2.2986662   -23.004089    7.7656209    2.4068831   -12.734146    -227.8384    2.3201306   -13.011731    203.85623    2.5278058   -22.999744    4.5530813    2.3375074   -473.74242 
 1000100    472.03358   -246.64459   -250.83256   -378.83835    303.67692    7.8956471    2.2753533   -22.193717   -227.86162    2.2664049   -22.973222    7.7258561    2.3748061   -12.732598   -227.85903    2.2718903   -12.975741     203.8587    2.5251898    -22.99779    4.5536304    2.3378337   -473.74281 
 1000200    472.03358   -246.35105   -275.12889   -405.96155    303.75028    7.8807292    2.2937311   -22.208761   -227.87369    2.2417026   -22.950733    7.7279909    2.3761348   -12.729401   -227.87056    2.2651145   -12.929453    203.85173    2.5268576    -23.02017    4.5541795      2.33816   -473.74319 
 1000300    472.03358    -255.4094   -283.66006    -372.0037    303.93451    7.8793533    2.2948905   -22.189402   -227.88516     2.249063   -22.963007    7.7272307    2.3613948   -12.713619   -227.87212    2.2474793   -12.959116    203.86904    2.5519776   -23.023425    4.5547286    2.3384863   -473.74358 
 1000400    472.03358   -257.37274   -253.41899   -352.23968    303.60151    7.8453558    2.3051904    -22.17847   -227.88089    2.2487275   -22.967002    7.6847328    2.3587144   -12.674489   -227.89104    2.2687299    -12.97395    203.88323    2.5525818   -23.008627    4.5552777    2.3388126   -473.74396 
 1000500    472.03358   -269.13138   -242.12019   -366.76501    303.40959    7.8311072    2.3161499   -22.144075   -227.87592    2.2684353   -22.979543     7.661352    2.3935555   -12.637461   -227.88749    2.2823897   -12.981864    203.87431     2.520992   -23.020224    4.5558268    2.3391389   -473.74434 
 1000600    472.03358   -232.25327   -246.86199   -388.91977     303.4201    7.8304281    2.3382421   -22.109023   -227.86825    2.2889146   -22.962939    7.6618693    2.4286998   -12.616477   -227.86998     2.253847   -12.967116    203.86563    2.5587051   -23.012811    4.5563759    2.3394652   -473.74473 
 1000700    472.03358   -234.06772   -223.11098   -367.38369    303.20588    7.8307338     2.346522   -22.087906   -227.86678    2.2776055   -22.957516    7.6825142    2.4281946   -12.584281   -227.86143    2.2358252     -12.9577    203.86324    2.6001136   -23.034145     4.556925    2.3397915   -473.74511 
 1000800    472.03358   -246.29626   -232.76303   -372.89704    303.79361    7.8137991    2.3586924   -22.077317   -227.84741    2.2674037   -22.947767    7.6720081    2.4581392   -12.568333   -227.84622    2.2188361   -12.955077    203.82919    2.5822586   -23.052427    4.5574741    2.3401178    -473.7455 
 1000900    472.03358   -250.15612   -245.93025   -408.42821     303.8719    7.8223303     2.339666   -22.089694   -227.84044    2.2717696   -22.937547    7.6960005    2.4333529   -12.603104   -227.83849    2.2506379   -12.922269    203.82559    2.5887974    -23.03842    4.5580232    2.3404441   -473.74588 
 1001000    472.03358    -224.4035   -246.74213   -345.69185    303.61572    7.8306897    2.3176334   -22.064492   -227.83157    2.3015877   -22.957219    7.6800192    2.3973927   -12.600663   -227.79863    2.3001386   -12.934931    203.80339    2.5752351    -23.03133    4.5585723    2.3407704   -473.74627 
 1001100    472.03358   -220.97941   -222.13084   -373.64265    303.58184    7.8388913    2.3479364   -22.078353   -227.82214    2.2994468   -22.978391    7.6998057    2.4119004    -12.62286   -227.80212    2.3238873   -12.954045    203.78511    2.5613982   -23.022358    4.5591214    2.3410967   -473.74665 
 1001200    472.03358    -229.2482   -224.99779   -367.25466    303.46037    7.8809937     2.345284   -22.087191    -227.8166    2.2850437   -23.014725    7.7470204    2.4132783   -12.629476   -227.79378    2.3011636    -12.98709    203.79717    2.5664279   -23.040712    4.5596705     2.341423   -473.74704 
 1001300    472.03358   -239.62882   -214.42724   -347.23504    303.61826    7.8859598    2.3351709   -22.103338   -227.83163    2.3169143   -23.007515    7.7699877    2.3775324   -12.648551   -227.81618    2.3332736   -13.020821    203.80302     2.594085   -23.079117    4.5602196    2.3417493   -473.74742 
 1001400    472.03358   -211.13389   -218.53872   -356.72193    303.53841    7.8960038    2.3555113   -22.085161   -227.82643    2.3484252   -23.016108    7.7772189    2.3994253   -12.616785   -227.81336    2.3686545   -13.042069    203.79485    2.5763196   -23.092068    4.5607687    2.3420756   -473.74781 
 1001500    472.03358   -244.82261   -223.35957   -365.93317    303.57964     7.890098    2.3480662   -22.104803   -227.84435    2.3561486   -23.046993    7.7600169    2.4098218   -12.624424   -227.83175    2.3766438   -13.076627    203.79291    2.5689896   -23.101855    4.5613177    2.3424019   -473.74819 
 1001600    472.03358   -236.59061     -235.177    -340.0208    303.60603    7.8915602     2.368034   -22.090091   -227.85831     2.344783   -23.044906    7.7577131     2.445099   -12.589474   -227.83861    2.3453899   -13.089234    203.81042    2.5975746   -23.086218    4.5618668    2.3427282   -473.74857 
 1001700    472.03358   -232.37492   -223.36271   -335.12087    303.47727    7.9115526    2.3754818   -22.089177    -227.8569    2.3385063   -23.064622    7.7799872     2.480263   -12.575615   -227.85183     2.336493   -13.094001    203.83613    2.6025112   -23.107677    4.5624159    2.3430544   -473.74896 
 1001800    472.03358   -216.67629   -219.76098   -345.74245    303.64795    7.9206707    2.3797326   -22.127771    -227.8542    2.3342047   -23.081815    7.7808581    2.4797017   -12.630199   -227.86443    2.3172765   -13.084718    203.86004    2.5950652    -23.13485     4.562965    2.3433807   -473.74934 
 1001900    472.03358   -210.16643   -209.35768   -325.78706    303.48097    7.9105705    2.3834792   -22.141166   -227.86186     2.318178   -23.074668    7.7754221    2.4950438   -12.663118    -227.8652     2.285202   -13.093718    203.85202    2.6096342   -23.148309    4.5635141     2.343707   -473.74973 
 1002000    472.03358   -210.43172   -202.62938   -351.41966    303.70487     7.883161    2.3639796   -22.135833   -227.84206    2.3074215   -23.089893    7.7552021     2.477417   -12.666867   -227.82392    2.3137594   -13.116427    203.85198    2.6345088   -23.150379    4.5640632    2.3440333   -473.75011 
 1002100    472.03358   -226.79592   -214.44314   -333.43764    303.60178    7.8510305     2.366018   -22.182861   -227.84152    2.2990929   -23.123046    7.7165795     2.470243   -12.715621   -227.82797    2.3095468   -13.148257    203.87388    2.6263937   -23.144367    4.5646123    2.3443596    -473.7505 
 1002200    472.03358   -224.86618   -204.90128    -330.0235    303.71039    7.8636872    2.3390927   -22.204073   -227.85152    2.3078394   -23.140806    7.7324311    2.4431927    -12.70949   -227.87104    2.3095585   -13.182316    203.86968    2.6080839   -23.154456    4.5651614    2.3446859   -473.75088 
 1002300    472.03358   -196.22861   -189.91727    -310.7925    303.43142    7.8499153    2.3497872   -22.195623   -227.85755    2.3061013   -23.147929    7.7210637    2.4365179    -12.70436   -227.87729     2.309317   -13.173261    203.88144    2.5999886   -23.136258    4.5657105    2.3450122   -473.75127 
 1002400    472.03358   -225.56341   -197.09069   -301.71708    303.77655    7.8435303    2.3565622   -22.183936   -227.85739    2.3028072   -23.132388    7.7136779    2.4200616    -12.69532   -227.88238    2.3265479   -13.160552    203.88295    2.5958894   -23.146565    4.5662596    2.3453385   -473.75165 
 1002500    472.03358   -192.99429   -169.87656   -281.83638     303.1248    7.8524163    2.3178575   -22.190498   -227.84635    2.2972984   -23.155638    7.7257552    2.3783905   -12.706164   -227.86375    2.3175632   -13.142127    203.87756    2.6367092   -23.152521    4.5668087    2.3456648   -473.75204 
 1002600    472.03358   -206.93152   -194.53499   -322.50801    303.55165    7.8363207    2.3313587    -22.16608   -227.85567    2.3234041   -23.132609    7.7105367    2.3873011   -12.686022   -227.86566     2.347055   -13.100275     203.8734    2.6115728   -23.175814    4.5673578    2.3459911   -473.75242 
 1002700    472.03358   -243.51675   -239.74363   -321.32041    303.67768    7.8373828    2.3533581   -22.164035   -227.85953    2.3027645   -23.146955    7.6966763    2.4087478   -12.677742   -227.88111    2.3024548   -13.126097    203.88195    2.5588864   -23.179641    4.5679069    2.3463174    -473.7528 
 1002800    472.03358   -226.00006   -244.93578   -358.49502    303.53976    7.8273342     2.356914   -22.187389   -227.84941    2.3002081   -23.135455    7.6908385    2.4131713   -12.698555   -227.83672    2.3101201   -13.113885    203.85605    2.5690892   -23.159892     4.568456    2.3466437   -473.75319 
 1002900    472.03358   -242.07237   -266.30532   -357.92195    303.51125    7.8041888    2.3327935   -22.185971   -227.81276    2.2820132   -23.115348    7.6523074    2.4141117   -12.694562    -227.7924    2.2726451   -13.127681      203.847    2.5814107   -23.182782    4.5690051      2.34697   -473.75357 
 1003000    472.03358   -254.55307   -251.47807   -367.40034    303.80664    7.8231524    2.3171055   -22.196831   -227.82873     2.289082   -23.088196    7.6764027    2.4058848   -12.719009   -227.81571    2.2823021   -13.096072    203.81919    2.5662553   -23.173323    4.5695542    2.3472963   -473.75396 
 1003100    472.03358   -253.43992   -251.91423   -368.55618    303.73975     7.839705     2.321099   -22.200404   -227.82865    2.2447024   -23.091393    7.6763095    2.3814275   -12.704425   -227.82739    2.2000635   -13.112724    203.81748    2.5815803   -23.185828    4.5701033    2.3476226   -473.75434 
 1003200    472.03358   -248.05574   -243.74432   -346.03062    303.51707    7.8230939    2.3398017   -22.190951    -227.8155    2.2494586   -23.106604    7.6476863     2.424008    -12.69631   -227.80741    2.2316777    -13.12447    203.82365    2.5897758    -23.18329    4.5706524    2.3479489   -473.75473 
 1003300    472.03358   -227.45415    -244.9048   -369.86072    303.69707    7.8051147    2.3237316   -22.221604   -227.83026    2.2584256   -23.128697     7.640972    2.4099178   -12.738768   -227.85513     2.260372   -13.131497    203.82971    2.6111897   -23.181895    4.5712015    2.3482752   -473.75511 
 1003400    472.03358   -190.92509   -241.05866   -327.45793    303.39441    7.7870997    2.3648501   -22.234857   -227.82166    2.2361473   -23.143209    7.6321643    2.4542236   -12.749259   -227.84927    2.2267713   -13.156547    203.84654    2.5999898   -23.202267    4.5717506    2.3486015    -473.7555 
 1003500    472.03358   -231.34556   -216.58423    -313.3495    303.45203    7.8094167    2.3850935   -22.249176   -227.81193    2.2735189    -23.12519    7.6527191     2.468537   -12.773641   -227.83834    2.2513355    -13.13119    203.84584    2.6103517   -23.183136    4.5722997    2.3489278   -473.75588 
 1003600    472.03358   -241.63193   -239.70696    -354.3085    304.08586    7.8070114    2.3818617   -22.259575   -227.81162    2.2850838   -23.104362    7.6663542    2.4832789   -12.781443   -227.83503    2.2930155   -13.128937    203.86386    2.6071509   -23.168419    4.5728488    2.3492541   -473.75627 
 1003700    472.03358   -206.27285   -224.51101   -324.26048    303.42843    7.7884714    2.3659072    -22.28069   -227.80991    2.2761035   -23.110605    7.6535304    2.4790454   -12.798002   -227.80217    2.2713069   -13.157661    203.84368    2.6284028   -23.158123    4.5733979    2.3495804   -473.75665 
 1003800    472.03358   -227.42798   -185.71434   -324.17724    303.58812    7.7869575    2.3692324   -22.277044   -227.83774    2.2783295    -23.11642    7.6422595    2.4599346   -12.793539   -227.81861    2.2569851   -13.152875      203.841    2.6150455   -23.130282     4.573947    2.3499067   -473.75703 
 1003900    472.03358   -235.01857   -194.46308   -300.53773    303.95014    7.7714673    2.3687404   -22.290147   -227.81507    2.2863778    -23.11213    7.6295721    2.4432808   -12.824334   -227.80223    2.2938152    -13.13892    203.85702    2.6034091   -23.114376    4.5744961     2.350233   -473.75742 
 1004000    472.03358   -191.90907   -198.70741   -316.72088     303.4724    7.7654461    2.3853373   -22.307215   -227.80451    2.3047466   -23.079131    7.6124695    2.4344521   -12.840303   -227.78897    2.3091434   -13.120546    203.86142    2.6272197   -23.131681    4.5750452    2.3505593    -473.7578 
 1004100    472.03358   -172.28681   -181.68775   -279.68042    303.32117    7.7581598    2.4272411   -22.276021   -227.80063    2.3162437   -23.070253    7.6074744      2.48048   -12.792553   -227.78994    2.3474363   -13.048086    203.87314    2.6352017    -23.13258    4.5755943    2.3508856   -473.75819 
 1004200    472.03358   -188.13608   -190.08873   -296.51184    303.74764    7.7664285    2.4265269   -22.263346   -227.80906    2.3429806   -23.066502    7.6209301    2.4873598   -12.785103   -227.79814    2.3697256   -13.045789     203.8675    2.6479774    -23.15564    4.5761433    2.3512118   -473.75857 
 1004300    472.03358   -207.27304   -198.27103    -292.8972    303.98883    7.7406701    2.4028983   -22.247753   -227.80692    2.3394905   -23.066849    7.5883475    2.4732019   -12.753867   -227.79801    2.3377768   -13.036804    203.87273    2.6495667   -23.147959    4.5766924    2.3515381   -473.75896 
 1004400    472.03358   -175.45618   -191.00003   -258.90056    303.72932    7.7258276    2.4015306   -22.233417   -227.81187    2.3694815   -23.076964    7.5925563    2.4848247   -12.726292   -227.79746    2.3455146   -13.054481    203.86638    2.6280677   -23.131287    4.5772415    2.3518644   -473.75934 
 1004500    472.03358   -154.41602   -157.79833   -262.82903    303.58301    7.7241164    2.4128851   -22.230652   -227.82413    2.3967823   -23.057639    7.5895822    2.5142889   -12.710012   -227.80867     2.372404   -13.040194    203.88848    2.6311302   -23.137347    4.5777906    2.3521907   -473.75973 
 1004600    472.03358    -170.4439   -159.58091   -244.45059    303.58789    7.7143844    2.4095242   -22.211948   -227.82459    2.4103721   -23.052382    7.5966953     2.528263   -12.701372   -227.79206    2.4038996   -13.058103     203.8819      2.63746   -23.149115    4.5783397     2.352517   -473.76011 
 1004700    472.03358   -163.62413    -172.2878   -206.60368    303.65248    7.7262003     2.420306   -22.230538    -227.8328    2.4285204   -23.072597      7.59471    2.5188567   -12.722309   -227.80899    2.3988475   -13.086251    203.88678    2.6884519   -23.184987    4.5788888    2.3528433   -473.76049 
 1004800    472.03358   -160.33923   -133.35837   -249.15165    303.66081    7.7386665    2.4228414   -22.226911   -227.83434    2.4596776    -23.06262    7.5874507    2.5292016   -12.709708   -227.84062    2.4304057   -13.035042    203.88869    2.6832094   -23.190941    4.5794379    2.3531696   -473.76088 
 1004900    472.03358   -174.52181   -163.96227   -249.81158    304.05724    7.7533003    2.4079055   -22.250179   -227.86693    2.4653268   -23.057564    7.6150561    2.5164225   -12.758397   -227.88719    2.4862193   -13.062417    203.88554    2.6920119   -23.194182     4.579987    2.3534959   -473.76126 
 1005000    472.03358   -170.78557   -124.56536   -209.17785    303.57045    7.7697319    2.4034947   -22.250067    -227.8674    2.4409167   -23.068778    7.6349952    2.4946515       -12.76   -227.89268    2.4618412   -13.069394    203.87458    2.7070776   -23.193976    4.5805361    2.3538222   -473.76165 
Loop time of 12288 on 512 procs for 1000000 steps with 812673 atoms

Performance: 14.063 ns/day, 1.707 hours/ns, 81.380 timesteps/s
99.9% CPU use with 512 MPI tasks x no OpenMP threads

MPI task timing breakdown:
Section |  min time  |  avg time  |  max time  |%varavg| %total
---------------------------------------------------------------
Pair    | 3536.8     | 8060.9     | 8605.3     |1098.7 | 65.60
Neigh   | 0.0046496  | 1.0573     | 1.3345     |  22.8 |  0.01
Comm    | 867.47     | 1335.5     | 4018.8     |1802.8 | 10.87
Output  | 5.6231     | 5.7976     | 6.3621     |   1.5 |  0.05
Modify  | 58.266     | 96.749     | 107.11     |  92.3 |  0.79
Other   |            | 2788       |            |       | 22.69

Nlocal:    1587.25 ave 1801 max 0 min
Histogram: 16 0 0 16 0 0 0 0 0 480
Nghost:    4343.85 ave 4867 max 962 min
Histogram: 16 0 16 0 0 0 16 0 128 336
Neighs:    111803 ave 127210 max 0 min
Histogram: 16 0 16 0 0 0 0 0 45 435

Total # of neighbors = 57243333
Ave neighs/atom = 70.4383
Neighbor list builds = 178
Dangerous builds = 0



Total wall time: 3:29:59
5
of neighbors = 57241534
Ave neighs/atom = 70.4365
Neighbor list builds = 170
Dangerous builds = 0



Total wall time: 3:29:48
= 57237152
Ave neighs/atom = 70.4302
Neighbor list builds = 190
Dangerous builds = 0



Total wall time: 3:31:23
