LAMMPS (28 Jun 2014)
# ------------------------ INITIALIZATION ----------------------------
echo both
#log		log.c
units           metal
dimension       3
boundary        p p p
atom_style      atomic
shell         mkdir  cfg
shell         mkdir  dump


# ----------------------- ATOM DEFINITION & Force Field -------------
read_data     NPT_relaxed.data       ##Read file dumped from simulation 1
  orthogonal box = (-64.7831 -8.09788 -298.79) to (64.7831 8.09788 21.076)
  3 by 1 by 5 MPI processor grid
  reading atoms ...
  33024 atoms
  reading velocities ...
  33024 velocities

pair_style      eam/alloy
pair_coeff  	  * * Al_wkg_MSMSE_2009.set Al

#---------------------- DEFINE Laser GERION and GROUP ----------------
region       R1  block -33  33  INF  INF  INF  5  units box
group        G1 region R1
17028 atoms in group G1
group        G2 subtract all G1
15996 atoms in group G2


#define     temperature/pressure calculation  group
variable    x1atom atom "x>=0  &&  x<4 &&  z>-40 && z<1"     ##NEW!!!!!!!!!!!!
variable    x2atom atom "x>=-64.78  &&  x<-60.78 &&  z>-40 && z<1"
variable    x3atom atom "x>=0  &&  x<4 &&  z>-20 && z<1"
variable    x4atom atom "x>=-64.78  &&  x<-60.78 &&  z>-20 && z<1"
variable    x5atom atom "x>=196  &&  x<200 &&  z>-40 && z<1"

group       x1atom variable x1atom
154 atoms in group x1atom
group       x2atom variable x2atom
144 atoms in group x2atom
group       x3atom variable x3atom
78 atoms in group x3atom
group       x4atom variable x4atom
73 atoms in group x4atom
group       x5atom variable x5atom
0 atoms in group x5atom


compute      COM1x x1atom com
compute      COM2x x2atom com
compute      COM3x x3atom com
compute      COM4x x4atom com
compute      COM5x x5atom com

compute      COMall all com

#Temperature profile
#variable      Tprofile atom 300*(1+(step/5000)*2.5*exp(z/40))
variable      Tprofile atom 300*(1+(step/5000)*2.5*exp(z/75))

# ------------------------- SETTINGS ---------------------------------
thermo          100
thermo_style    custom step lx pxx pyy pzz temp c_COM1x[1] c_COM1x[2] c_COM1x[3] c_COM2x[1] c_COM2x[2] c_COM2x[3] c_COM3x[1] c_COM3x[2] c_COM3x[3] c_COM4x[1] c_COM4x[2] c_COM4x[3]  c_COM5x[1] c_COM5x[2] c_COM5x[3] c_COMall[1] c_COMall[2] c_COMall[3]

timestep       0.002


compute dispall all displace/atom
# ---------------- Run Laser Material Interaction --------------------
#dump          1 all custom 1000 dump/z1dump.atom id type x y z c_dispall[1]  c_dispall[2]  c_dispall[3] c_dispall[4]
#dump          2 all cfg 100 cfg/*.cfg mass type xs ys zs
#dump_modify   2 element Al

#relax for 2 PS
#fix           1 all nvt temp 300.0 300.0 0.1
#run  1000
#unfix         1

fix           1  all nve
fix           3temp  G1  langevin  v_Tprofile  0  0.1  378411   #TEST ALL
run           5000
Memory usage per processor = 2.82425 Mbytes
Step Lx Pxx Pyy Pzz Temp COM1x[1] COM1x[2] COM1x[3] COM2x[1] COM2x[2] COM2x[3] COM3x[1] COM3x[2] COM3x[3] COM4x[1] COM4x[2] COM4x[3] COM5x[1] COM5x[2] COM5x[3] COMall[1 COMall[2 COMall[3 
       0    129.56615    1229.2466    1206.1035    782.98829    300.18112    2.5297829  -0.91802091   -19.997371   -62.652569   -1.4306768   -20.151628    2.3470804   -1.1537191   -9.8465332   -62.509433   -1.2999676   -10.060415            0            0            0   -1.0122355   -1.0122355   -128.73481 
     100    129.56615    1302.0405    1255.7787    863.24507    300.96512    2.5613174  -0.88944459     -19.9587    -62.65988   -1.4299407   -20.165717    2.3652113   -1.0932977   -9.8071945    -62.47614   -1.2942517   -10.064693            0            0            0   -1.0117795   -1.0132693   -128.73493 
     200    129.56615      1465.55    1361.3226    951.10406    304.12742    2.5820039  -0.90404621   -19.979297   -62.678711    -1.403664   -20.123813    2.3782998   -1.1272975   -9.8606159   -62.487901   -1.2726531   -10.036557            0            0            0   -1.0093925   -1.0171526   -128.73471 
     300    129.56615     1376.136    1377.0294    930.61363    303.22994    2.5829927  -0.91193203   -19.938153   -62.700511   -1.3651374   -20.128971     2.430198   -1.1247832   -9.8264895    -62.51208   -1.1738907   -10.038453            0            0            0   -1.0113899   -1.0228957   -128.73487 
     400    129.56615    1528.6977    1513.7109    1100.5165     307.6294     2.600911  -0.89271304   -19.970468   -62.708185   -1.3984259   -20.083141    2.3768751   -1.1376773   -9.8574577   -62.518854   -1.1770086   -10.002254            0            0            0   -1.0145136   -1.0325006   -128.73448 
     500    129.56615     1679.324    1580.2683    1139.6171    312.24756    2.5769192  -0.91943735   -19.959438   -62.684746   -1.3832631   -20.055982    2.3404239   -1.1281239   -9.8100565   -62.495317   -1.1708573   -9.9495079            0            0            0      -1.0179   -1.0388355   -128.73336 
     600    129.56615    1657.1761    1585.5936    1029.7753    314.29966    2.6105146   -0.9276695   -19.911933   -62.689107    -1.402877    -20.01594    2.3890232   -1.1469514   -9.7528469   -62.536024   -1.2010981   -9.9052354            0            0            0   -1.0182757   -1.0471376   -128.73015 
     700    129.56615    1638.8953    1745.2192    1039.1214    314.78552    2.6195411  -0.94525603   -19.959904   -62.674624   -1.4230472   -20.023076    2.4123886   -1.1523864   -9.8304035   -62.483886   -1.1660426    -9.890263            0            0            0   -1.0238284   -1.0556288   -128.72929 
     800    129.56615    1748.8455    1750.1043    1024.1797    316.75684    2.6255917  -0.95812661    -19.95071   -62.620078   -1.4041939   -20.007257    2.4209018   -1.1608432   -9.8332757    -62.42609   -1.1363447   -9.8809419            0            0            0   -1.0247667   -1.0607468    -128.7311 
     900    129.56615     1743.031    1662.8881    1026.5735    323.48848    2.5956217   -0.9396287   -19.952103   -62.599711   -1.4011087   -19.976119    2.3860436   -1.1301531   -9.8466112    -62.45648   -1.1734146   -9.8692253            0            0            0   -1.0280695   -1.0642335   -128.72756 
    1000    129.56615     1848.723    1909.6326    1110.1332    326.06152    2.5957418  -0.90956483   -19.903554   -62.590016   -1.4170074   -19.971609    2.3777926   -1.1027745   -9.7746091   -62.454827   -1.2073679   -9.8308086            0            0            0   -1.0294556   -1.0672827   -128.72609 
    1100    129.56615    1908.1008    1994.0806    1068.4877     325.4594    2.5945122  -0.90512561   -19.863677   -62.617918   -1.4296328   -19.979013    2.3900423   -1.0493238   -9.7227691   -62.463933   -1.2710022   -9.8366776            0            0            0   -1.0293698   -1.0684077   -128.72745 
    1200    129.56615     2125.933    2085.5594     1313.803    327.81891    2.6246223  -0.91362987   -19.842927   -62.591825   -1.4716607   -19.969064    2.4016832   -1.1416363   -9.6661334   -62.415507   -1.3485712   -9.8384427            0            0            0   -1.0255292   -1.0660264   -128.72621 
    1300    129.56615     2228.842    2171.9708     1394.648    333.09425    2.6158726  -0.94367928   -19.833196    -62.63313   -1.4879416   -19.898834    2.3734871   -1.1560991   -9.6674879   -62.438691      -1.3535   -9.8056456            0            0            0   -1.0233976   -1.0647115   -128.72796 
    1400    129.56615    2371.0274    2329.4697    1516.8261    333.84182    2.6146224  -0.96831721   -19.825742    -62.65231   -1.5407971   -19.853964    2.3785131   -1.2110587   -9.6672767   -62.503598   -1.3851546   -9.7553121            0            0            0   -1.0207815   -1.0621368   -128.73151 
    1500    129.56615    2375.1634    2286.8824    1429.2892    340.51533    2.6058247  -0.97385584   -19.868143   -62.612443   -1.5479939   -19.890112    2.3961765     -1.20738   -9.6958861   -62.486973   -1.4007815   -9.7397999            0            0            0   -1.0210206   -1.0601761   -128.73418 
    1600    129.56615     2561.566     2516.476    1632.6424    341.28035    2.5951504   -0.9879685    -19.85366   -62.622208    -1.473419   -19.898075    2.3618463   -1.2397153    -9.670504   -62.480295   -1.3149932   -9.7582972            0            0            0   -1.0241258   -1.0537381   -128.73752 
    1700    129.56615    2663.3371    2673.8499    1811.3595     347.9472    2.6133248  -0.97034369   -19.804407   -62.633901   -1.4836351    -19.88077    2.3937466   -1.2522119   -9.5972992   -62.439612   -1.3124943   -9.7583681            0            0            0   -1.0320494   -1.0474997   -128.74214 
    1800    129.56615    2863.2507    2770.9394    1932.4032    346.57309    2.5796457  -0.97116598   -19.813266   -62.607011   -1.4394145    -19.85618    2.3613347   -1.2086117   -9.6636396   -62.428638    -1.250095   -9.7164112            0            0            0     -1.04063   -1.0424982   -128.74433 
    1900    129.56615    3009.9349    3000.3908    1990.5557    350.59593    2.6102255   -1.0166514   -19.823846   -62.648779   -1.3993126   -19.915427    2.3481784   -1.2450434   -9.6602204   -62.505979   -1.2132091   -9.7975724            0            0            0   -1.0458505   -1.0372536   -128.74833 
    2000    129.56615      3011.71    3001.8377    1959.4245    356.11805    2.5969066   -0.9816667   -19.761771   -62.657627   -1.3816507   -19.916828    2.3133423   -1.2247832   -9.6315136   -62.509875   -1.1352316   -9.8311032            0            0            0   -1.0551996   -1.0332372   -128.74658 
    2100    129.56615    3270.6997    3087.8034    2269.1178    357.35548    2.6781367   -1.0264789   -19.779852   -62.612423   -1.3940301   -19.935459    2.4327831   -1.2235451   -9.6713069   -62.449652   -1.1788575   -9.7882315            0            0            0   -1.0566128   -1.0285247    -128.7507 
    2200    129.56615    3332.1655    3445.1764     2312.051    359.37675    2.7121716   -1.0440838   -19.765371   -62.650728   -1.3645363   -19.959427    2.4992737   -1.2843412   -9.6168423   -62.438387   -1.1455647   -9.8054995            0            0            0     -1.05633   -1.0268001   -128.75429 
    2300    129.56615    3462.7992    3397.4385    2450.5072    366.75744    2.7076293   -1.0306079   -19.762199   -62.597095   -1.3131739   -19.937366    2.4804279   -1.2327956   -9.5967997   -62.389348   -1.1511711   -9.7826429            0            0            0   -1.0534729   -1.0260852   -128.75599 
    2400    129.56615    3786.6095     3721.278    2809.3266    369.12863    2.6603145   -1.0140246   -19.803961   -62.645479   -1.3234188   -19.946962    2.4438755   -1.2072753   -9.6079167   -62.464653   -1.1475087   -9.7932691            0            0            0   -1.0517146   -1.0232267   -128.75521 
    2500    129.56615    3907.0213    3719.7549    2719.9805    371.90206    2.7064203  -0.99791883    -19.76295    -62.64826   -1.3271778   -19.944256    2.5162746   -1.2208218    -9.598281   -62.489635   -1.1799884   -9.7886554            0            0            0   -1.0443963   -1.0199092    -128.7572 
    2600    129.56615    3905.9242    3956.4772    2863.4661    376.01199     2.718901  -0.95192896   -19.761296   -62.642415   -1.3049307   -19.951937    2.4951869   -1.2281683   -9.5383084   -62.501311   -1.1316844   -9.7864134            0            0            0   -1.0403312   -1.0206352    -128.7589 
    2700    129.56615    4053.8294    3939.8624    2782.6852    379.66082    2.7277074  -0.98508627   -19.738947   -62.630343   -1.3504877     -19.9292    2.5242129   -1.2602973    -9.551805   -62.468757   -1.1860181   -9.7322337            0            0            0   -1.0383456   -1.0207757   -128.75592 
    2800    129.56615    4074.8644    4013.3476    2903.4377    382.61015    2.7111834   -0.9755007   -19.699324    -62.62204   -1.3620509   -19.901114      2.49006   -1.2297916   -9.5065343   -62.474804   -1.2091396   -9.7487108            0            0            0   -1.0397306   -1.0215397   -128.75317 
    2900    129.56615    4307.9095    4328.4187    3090.4259     382.7759    2.6927385  -0.89787201   -19.700928   -62.633176   -1.4049939   -19.869731    2.4259549   -1.1828789   -9.5001587   -62.450149   -1.2163233   -9.7157446            0            0            0    -1.042135   -1.0243661   -128.75055 
    3000    129.56615     4260.537    4193.6573    3046.9913    389.94395    2.7193651  -0.97745327   -19.669446   -62.644489   -1.4411708   -19.821486    2.4760658   -1.2481999   -9.4404691   -62.470271   -1.2565679   -9.7041134            0            0            0   -1.0452281   -1.0289279   -128.74918 
    3100    129.56615    4472.2034    4430.1847    3023.5247    391.06222    2.6690181  -0.91959058   -19.675038    -62.58699   -1.4498015   -19.785006    2.3845702   -1.1862568   -9.4587992   -62.365779   -1.2806713   -9.6410544            0            0            0    -1.049238   -1.0389878   -128.74903 
    3200    129.56615    4487.2882    4550.5356    3046.5122    396.85177    2.6651017  -0.93649189    -19.66325   -62.610494   -1.4929102   -19.735127    2.3775986   -1.1514854   -9.3608263   -62.457721   -1.3215761   -9.5420865            0            0            0   -1.0507888   -1.0461469   -128.74956 
    3300    129.56615    4575.2708    4539.3906    2932.2845    395.03512     2.690772  -0.95294764   -19.640033   -62.613051    -1.488254   -19.662361    2.4230225   -1.1998577   -9.3296905   -62.452193   -1.2865529   -9.4598694            0            0            0   -1.0485603   -1.0524459   -128.74901 
    3400    129.56615    4570.2991    4406.2886    2721.4913    401.51058    2.6731516  -0.95958709     -19.6029   -62.579371   -1.4964085   -19.621406     2.407763   -1.1792471    -9.268293   -62.447988   -1.2888478   -9.4267511            0            0            0   -1.0503096   -1.0559301   -128.74817 
    3500    129.56615    4550.0814    4395.4381    2702.4894    403.76266    2.6429723  -0.99473842   -19.604335   -62.566415    -1.485188   -19.545582    2.3805754   -1.2138769   -9.3562052   -62.413966   -1.3071224   -9.3809081            0            0            0   -1.0476962   -1.0610341   -128.74365 
    3600    129.56615    4656.8617    4676.1423    2850.2801    405.68798    2.6925887  -0.96854172   -19.659464   -62.620215   -1.4888684   -19.544479    2.4517715   -1.2089796    -9.388629   -62.496349   -1.3451115   -9.2985501            0            0            0   -1.0441139   -1.0638315   -128.73931 
    3700    129.56615    4869.8305    4889.7688     3179.512    412.58968    2.7140407  -0.95672158   -19.631337   -62.600744   -1.4635411   -19.514424     2.472357   -1.2011029   -9.3042988   -62.461379   -1.3119828   -9.2425281            0            0            0   -1.0413014   -1.0692545   -128.73505 
    3800    129.56615    5046.2247     4986.196     3272.293    416.14622    2.6502943  -0.97174358   -19.621685   -62.610735   -1.4878236   -19.535689    2.4240388    -1.225332   -9.3187521   -62.477125   -1.3122519   -9.3834164            0            0            0   -1.0387603    -1.068019    -128.7332 
    3900    129.56615    5201.6636    5050.4144    3412.2342    421.04312    2.6784594  -0.99588679   -19.579492   -62.597953   -1.4870803   -19.496703    2.5255837   -1.1928135   -9.2720364   -62.417515   -1.2842804   -9.3629027            0            0            0   -1.0361657   -1.0674382   -128.73042 
    4000    129.56615    5221.3625    5212.3769    3322.6954    423.48791    2.6846264   -1.0201876   -19.625959    -62.60366   -1.5470589   -19.477246    2.5083779   -1.2676468   -9.3261149   -62.405769   -1.3134196   -9.2812839            0            0            0   -1.0359755   -1.0660564   -128.73017 
    4100    129.56615    5323.0419    5039.5712     3192.772    423.97779    2.7077344  -0.98757933    -19.64751   -62.588991   -1.4652516   -19.518025    2.5226192   -1.2467624   -9.2942231   -62.323948   -1.2575233   -9.3131451            0            0            0   -1.0315071    -1.062121   -128.73012 
    4200    129.56615    5331.2588    5182.1133    3178.6347    429.76156    2.7729114  -0.93239575   -19.530446   -62.563514   -1.4287192   -19.565776    2.6010269   -1.2108938   -9.1692776   -62.299576   -1.1931373   -9.3674186            0            0            0   -1.0248872   -1.0613453   -128.72553 
    4300    129.56615    5648.2816    5509.9073    3536.2429     432.8066    2.7958342  -0.99831008   -19.505276   -62.543676   -1.4975485   -19.512284    2.5848484    -1.288606    -9.143243   -62.363254   -1.2948201   -9.2796404            0            0            0   -1.0213484   -1.0563094   -128.72432 
    4400    129.56615    5837.5807    5640.1467    3581.5313    436.17183    2.7475356   -1.0524638   -19.566711   -62.492936   -1.4452995   -19.473752    2.5479849   -1.3064845   -9.2423593   -62.357262   -1.1627551   -9.2729161            0            0            0   -1.0233302   -1.0517271   -128.72417 
    4500    129.56615    5966.6339    5674.8486    3626.4184    441.16664    2.6946411   -0.9961304   -19.556163   -62.477819   -1.3734652   -19.410793    2.5163829    -1.252891   -9.2319233   -62.304073   -1.1093582   -9.1835408            0            0            0   -1.0235394   -1.0444728   -128.72497 
    4600    129.56615    6060.3169    5972.5289    3796.2265    444.32662    2.7006069  -0.96536182   -19.513506   -62.481962   -1.4249942   -19.382699    2.5001382   -1.2020161   -9.2338744   -62.254142   -1.2433103   -9.1833461            0            0            0   -1.0275497   -1.0416613   -128.72588 
    4700    129.56615    6170.6486    6104.5667    4029.8359    451.06952    2.7145071   -0.9479359   -19.475673   -62.488195   -1.4308702   -19.367939    2.4885894   -1.2246707   -9.1368022   -62.266323   -1.2990992   -9.0711341            0            0            0   -1.0337481   -1.0399816   -128.72875 
    4800    129.56615     6206.224    6206.9676    3952.0316    453.74006    2.7205198  -0.94250252   -19.424552   -62.543367   -1.4309413   -19.393323    2.4952237   -1.2307888   -9.0883915   -62.301326   -1.3064463   -9.1531697            0            0            0   -1.0431363   -1.0380823   -128.73312 
    4900    129.56615    6102.6067    6013.5637    3697.7922    458.39459    2.7807972    -0.952454   -19.397412   -62.561225    -1.441886   -19.318425    2.6102991   -1.2542461   -8.9875777   -62.342687   -1.3356745   -9.0501844            0            0            0   -1.0439646   -1.0309916   -128.73695 
    5000    129.56615    6544.1619    6307.7787    4138.8604    461.04967    2.7867092  -0.94189538   -19.444337   -62.556863   -1.4654043   -19.324124    2.6281644   -1.2990607   -9.1167289   -62.366891   -1.3684795   -9.0053489            0            0            0   -1.0414537   -1.0282402   -128.73769 
Loop time of 67.8785 on 15 procs for 5000 steps with 33024 atoms

Pair  time (%) = 52.0209 (76.6383)
Neigh time (%) = 0.754793 (1.11198)
Comm  time (%) = 11.4538 (16.874)
Outpt time (%) = 0.0758583 (0.111756)
Other time (%) = 3.57313 (5.26401)

Nlocal:    2201.6 ave 2783 max 1008 min
Histogram: 3 0 0 0 2 1 0 0 1 8
Nghost:    5896.73 ave 7454 max 2954 min
Histogram: 3 0 0 3 0 0 0 0 0 9
Neighs:    154740 ave 198416 max 71408 min
Histogram: 3 0 0 1 2 0 0 0 1 8

Total # of neighbors = 2321096
Ave neighs/atom = 70.2851
Neighbor list builds = 87
Dangerous builds = 0


variable  com1_x equal "c_COM1x[1]"
variable  com1_y equal "c_COM1x[2]"
variable  com1_z equal "c_COM1x[3]"
variable  com2_x equal "c_COM2x[1]"
variable  com2_y equal "c_COM2x[2]"
variable  com2_z equal "c_COM2x[3]"
variable  com3_x equal "c_COM3x[1]"
variable  com3_y equal "c_COM3x[2]"
variable  com3_z equal "c_COM3x[3]"
variable  com4_x equal "c_COM4x[1]"
variable  com4_y equal "c_COM4x[2]"
variable  com4_z equal "c_COM4x[3]"
variable  com5_x equal "c_COM5x[1]"
variable  com5_y equal "c_COM5x[2]"
variable  com5_z equal "c_COM5x[3]"
variable  comall_x equal "c_COMall[1]"
variable  comall_y equal "c_COMall[2]"
variable  comall_z equal "c_COMall[3]"


fix          2 all print 100 "${com1_x}   ${com1_y}   ${com1_z}  ${com2_x}   ${com2_y}   ${com2_z} ${com3_x}   ${com3_y}   ${com3_z} ${com4_x}   ${com4_y}   ${com4_z} ${com5_x}   ${com5_y}   ${com5_z} ${comall_x}   ${comall_y}   ${comall_z}" file COM.data screen no
#-------------------------- Wave Propagation -------------------------
unfix        3temp
run          1000000
Memory usage per processor = 2.69925 Mbytes
Step Lx Pxx Pyy Pzz Temp COM1x[1] COM1x[2] COM1x[3] COM2x[1] COM2x[2] COM2x[3] COM3x[1] COM3x[2] COM3x[3] COM4x[1] COM4x[2] COM4x[3] COM5x[1] COM5x[2] COM5x[3] COMall[1 COMall[2 COMall[3 
    5000    129.56615    6544.1619    6307.7787    4138.8604    461.04967    2.7867092  -0.94189538   -19.444337   -62.556863   -1.4654043   -19.324124    2.6281644   -1.2990607   -9.1167289   -62.366891   -1.3684795   -9.0053489            0            0            0   -1.0414537   -1.0282402   -128.73769 
    5100    129.56615    6333.6316    6345.5991    3961.2198    461.55773    2.7059961   -0.9119077   -19.492925   -62.585781   -1.4859895   -19.260931    2.5706958   -1.2273084   -9.2460219   -62.470353   -1.3530872   -8.9797043            0            0            0   -1.0417159   -1.0279024   -128.74081 
    5200    129.56615    6083.5711    6043.1704    3626.2195     463.1461    2.6994333  -0.92524712   -19.390504   -62.576178   -1.4778693   -19.254125    2.4628222   -1.1308582    -9.023674   -62.488383   -1.2824881   -8.9832718            0            0            0    -1.041978   -1.0275645   -128.74392 
    5300    129.56615    5993.0714     5855.926       3413.6    459.26322    2.6744183   -1.0026661   -19.201847   -62.526569   -1.3653016    -19.25782    2.4179336   -1.1160102    -8.840785   -62.372968   -1.1332362   -8.9503056            0            0            0   -1.0422401   -1.0272267   -128.74704 
    5400    129.56615    5667.3338    5765.1051    2725.7679    460.99106    2.7003526  -0.91733576   -19.073652   -62.531693    -1.375528   -19.276009    2.5293019   -1.0390254   -8.6830914   -62.356904   -1.1641371   -9.0135039            0            0            0   -1.0425022   -1.0268888   -128.75016 
    5500    129.56615    5477.4253    5343.3099    2254.8304    459.53673    2.7067128  -0.91168499   -18.907231   -62.566976   -1.3915697   -19.221224    2.5005356   -1.1635745   -8.4465129   -62.309109   -1.2053827   -8.9623943            0            0            0   -1.0427644    -1.026551   -128.75327 
    5600    129.56615    5171.7604    4962.5189    1696.2907    457.67599    2.6672697  -0.99130844   -18.634433   -62.602261   -1.4494975   -19.190289    2.4063932   -1.2406476   -8.1762063   -62.364248   -1.2212803   -8.8893772            0            0            0   -1.0430265   -1.0262131   -128.75639 
    5700    129.56615    4915.8458    4713.9415    1261.2719    459.16979    2.6768467  -0.96939406   -18.469533   -62.634518   -1.4367507   -19.181322    2.3431464   -1.2268184   -7.9825024   -62.421867   -1.2022428   -8.9198986            0            0            0   -1.0432886   -1.0258753   -128.75951 
    5800    129.56615    4451.6239    4330.2347    717.50139    457.97852    2.6403493  -0.92898375   -18.299227   -62.616799   -1.4091723   -19.147074    2.3625237    -1.200804   -7.7257023   -62.447828   -1.1765408   -8.8766431            0            0            0   -1.0435507   -1.0255375   -128.76262 
    5900    129.56615    4201.1564    4059.4151    324.12826    456.19105    2.6589125  -0.90736199    -18.08576   -62.632282    -1.343403    -19.06339    2.4297524   -1.2696891   -7.4978587   -62.551421   -1.1308384   -8.7944349            0            0            0   -1.0438129   -1.0251996   -128.76574 
    6000    129.56615    3885.5717    3719.7771   -333.23747    458.85779    2.6658759  -0.89031269   -17.897638   -62.659451   -1.3403178   -18.994505    2.4476881   -1.1945468   -7.3742979   -62.559779   -1.1403176   -8.6769468            0            0            0    -1.044075   -1.0248618   -128.76886 
    6100    129.56615    3481.3129    3344.2892    -844.6816    456.69973    2.6216952  -0.88786428   -17.833018   -62.716242    -1.361085   -18.941645    2.4514446   -1.1370127   -7.3144233   -62.601865   -1.1510432   -8.6185986            0            0            0   -1.0443371   -1.0245239   -128.77197 
    6200    129.56615    3279.8843    3417.6465   -1293.0528    454.33417    2.6458053  -0.86497813   -17.804886   -62.751001   -1.3323205   -18.906602    2.5121858   -1.1148691   -7.2366667   -62.593923   -1.0922297    -8.645972            0            0            0   -1.0445992   -1.0241861   -128.77509 
    6300    129.56615    3086.6083    2972.7366   -1798.8363    455.72703    2.6112347  -0.84834802   -17.768254   -62.682493   -1.3605457   -18.878618     2.514695  -0.99021716   -7.2159118   -62.517083   -1.1593914   -8.6089412            0            0            0   -1.0448614   -1.0238482    -128.7782 
    6400    129.56615    2938.5475     2701.976   -2116.7457    453.27396    2.5406684  -0.88870457    -17.79521   -62.676149   -1.3558875   -18.823038    2.4200082   -1.0748708   -7.2340237   -62.540592   -1.2107468   -8.5252395            0            0            0   -1.0451235   -1.0235104   -128.78132 
    6500    129.56615    2490.1645    2460.0804   -2709.2759    457.05532    2.5403391  -0.95012473   -17.849855   -62.693499   -1.3874351   -18.710904    2.3520091   -1.1060425   -7.3572108   -62.528669    -1.264636   -8.4442219            0            0            0   -1.0453856   -1.0231725   -128.78444 
    6600    129.56615    2471.3986    2373.0869   -3006.5187    453.35805    2.5345098    -1.032685   -17.838448   -62.660856   -1.4605897   -18.600123    2.3366315   -1.2748567   -7.3121423   -62.455598    -1.278661    -8.345811            0            0            0   -1.0456477   -1.0228347   -128.78755 
    6700    129.56615    2125.1339     2112.773    -3340.916    453.48808    2.4937575   -1.0279767   -17.893924   -62.645362   -1.4852265   -18.479854    2.2523856   -1.2659589   -7.3852093   -62.455621   -1.3305725   -8.1139275            0            0            0   -1.0459098   -1.0224968   -128.79067 
    6800    129.56615    1981.7389    1841.8041   -3738.3896    452.20284    2.5563477  -0.99125705   -17.959006   -62.685756   -1.4305398   -18.446718    2.3047731   -1.2337014   -7.4726261   -62.454974   -1.2940485   -8.0772553            0            0            0    -1.046172    -1.022159   -128.79379 
    6900    129.56615    1952.6846    1866.7486   -3890.4322    452.54453    2.5664309  -0.99007006   -18.007951   -62.648575   -1.4429249   -18.309567    2.2843717   -1.1929082   -7.5542705   -62.435828   -1.3200225   -7.9243192            0            0            0   -1.0464341   -1.0218211    -128.7969 
    7000    129.56615    1970.0686    1926.3188   -3931.7094    449.14636     2.609681  -0.91808086   -18.149773   -62.669163   -1.4496886   -18.174084    2.3555366   -1.1505332   -7.7466535   -62.472352   -1.2957923   -7.7816301            0            0            0   -1.0466962   -1.0214833   -128.80002 
    7100    129.56615    1793.6951    1781.2641   -3843.3457    452.69711    2.6681678  -0.89758819   -18.240341   -62.673354   -1.4041975   -18.096153    2.4159449   -1.1235142   -7.8901225    -62.52336   -1.1664129   -7.6864268            0            0            0   -1.0469583   -1.0211454   -128.80314 
    7200    129.56615    1931.6564     1732.266   -4024.7669    452.72994    2.6595662  -0.90908334   -18.302856   -62.733313   -1.4518719   -18.134065    2.4271687   -1.1528826   -7.9993683    -62.63392   -1.1745311   -7.7553387            0            0            0   -1.0472205   -1.0208076   -128.80625 
    7300    129.56615    1980.0376    1975.7702   -3649.0562    453.72738    2.6430537   -0.9537703   -18.362765    -62.75448   -1.4126744   -18.115354    2.4755889    -1.181367   -8.0182222   -62.646342   -1.1378827   -7.6897698            0            0            0   -1.0474826   -1.0204697   -128.80937 
    7400    129.56615    2115.1857    2227.9769    -3732.028    453.05007    2.6850447  -0.93479593   -18.319876   -62.726132   -1.4056244   -18.134399    2.5525639   -1.2135816    -7.955348   -62.558528   -1.1565081   -7.7979344            0            0            0   -1.0477447   -1.0201319   -128.81249 
    7500    129.56615    2328.7694    2328.7882    -3199.783    453.95314    2.6541212  -0.95573771   -18.374714   -62.714891   -1.4103432   -18.196967    2.4978975   -1.1827047   -7.8374569   -62.517479   -1.1854928   -7.9239207            0            0            0   -1.0480068    -1.019794    -128.8156 
    7600    129.56615    2717.4371    2686.8483   -2420.3532    456.08532    2.5653257   -1.0110361   -18.348068   -62.683684   -1.5350299   -18.239681    2.3600099   -1.3193033   -7.8328756   -62.483997   -1.3863946   -7.8477924            0            0            0    -1.048269   -1.0194562   -128.81872 
    7700    129.56615    2814.6411    2807.6015   -2094.0281    456.89677    2.5353342   -1.0152095   -18.409421   -62.673903   -1.4799307   -18.235034    2.2882286   -1.3047202   -7.9103613   -62.455887   -1.3697643   -7.9084605            0            0            0   -1.0485311   -1.0191183   -128.82183 
    7800    129.56615    3168.0789    3183.0179   -1579.7512     455.6615    2.5926592   -0.9638149   -18.343793   -62.699983   -1.5030256   -18.390677      2.37095   -1.2273494    -7.861309   -62.475954   -1.3720649   -8.0966363            0            0            0   -1.0487932   -1.0187805   -128.82495 
    7900    129.56615     3541.769    3418.7818   -1006.4429    458.26452    2.5996467  -0.91444713   -18.375407   -62.638287   -1.4709877   -18.499245    2.3263458    -1.125274    -7.938435   -62.410249     -1.33415   -8.1603877            0            0            0   -1.0490553   -1.0184426   -128.82807 
    8000    129.56615    3797.1107    3765.9966   -524.08299    459.15287    2.5275076  -0.96111659    -18.45058   -62.618121   -1.4530712   -18.618072    2.2850559   -1.1363783     -7.96261   -62.361899   -1.3429939   -8.2464991            0            0            0   -1.0493175   -1.0181048   -128.83118 
    8100    129.56615    4227.3726    4112.5413    121.00055    458.57369    2.5453361  -0.95250092   -18.539746   -62.641571   -1.4189192   -18.766339    2.3721872   -1.1582878   -8.0318674   -62.408809   -1.2902323    -8.423207            0            0            0   -1.0495796   -1.0177669    -128.8343 
    8200    129.56615     4437.523    4344.4859    493.53426    458.05111    2.6265827  -0.90325814   -18.578204   -62.643033   -1.3754089   -18.943025    2.4700932   -1.0942233   -8.0931138   -62.422062   -1.1984762   -8.6253392            0            0            0   -1.0498417   -1.0174291   -128.83742 
    8300    129.56615    4686.4223    4691.5727    1210.5454    460.35683    2.5790363  -0.89467462   -18.556798   -62.633846   -1.3746185    -19.05787    2.4038353    -1.057749   -8.0919947   -62.440114   -1.1529219   -8.7851925            0            0            0   -1.0501038   -1.0170912   -128.84053 
    8400    129.56615    5050.4373     5069.552    1712.1663    458.90817    2.6223311  -0.85197979   -18.672801   -62.649085   -1.3704358   -19.180111    2.4426703   -1.1115164   -8.2730849   -62.478659   -1.1118037   -8.9737094            0            0            0    -1.050366   -1.0167534   -128.84365 
    8500    129.56615    5351.0186    5174.7715     2021.989    460.14639    2.5588557  -0.88242668   -18.783284   -62.716831    -1.388005   -19.326281     2.340173   -1.2128788   -8.4087904   -62.627634    -1.131868   -9.0854985            0            0            0   -1.0506281   -1.0164155   -128.84677 
    8600    129.56615    5467.5778    5510.5887    2272.5033    460.30505    2.6053361  -0.94945528    -18.78195   -62.706848   -1.4569374   -19.472378    2.3800603   -1.2662701   -8.4261564   -62.605172   -1.2476767   -9.1275588            0            0            0   -1.0508902   -1.0160777   -128.84988 
    8700    129.56615    5779.2334    5664.5679    2659.2377    461.69843    2.6250655   -1.0128408   -18.899139   -62.671421   -1.3852646   -19.610275    2.3581272   -1.3787459   -8.4661088   -62.527299   -1.2284928   -9.1971823            0            0            0   -1.0511523   -1.0157398     -128.853 
    8800    129.56615     5921.124    5814.0667     3263.705    463.54157    2.6207838  -0.95389707   -19.007256   -62.675753   -1.4135373   -19.660644    2.3519519     -1.28102    -8.588645   -62.500258   -1.2465725   -9.3136997            0            0            0   -1.0514144    -1.015402   -128.85612 
    8900    129.56615    6108.4364    6008.2924    3438.1669    464.17413    2.6309432  -0.86194026    -18.99736   -62.615673   -1.3858146    -19.64598    2.4202793   -1.1134278   -8.6112842   -62.424741   -1.1634629   -9.3231747            0            0            0   -1.0516766   -1.0150641   -128.85923 
    9000    129.56615    6263.7514    6234.0588    3736.6929    464.20903    2.5811721  -0.88629078   -19.160311   -62.689497   -1.3630927   -19.578149    2.3919155   -1.1203699   -8.7033646   -62.488756   -1.1370281    -9.254928            0            0            0   -1.0519387   -1.0147263   -128.86235 
    9100    129.56615    6427.5716    6411.0502    4061.8262    463.62292    2.5936279  -0.93269571   -19.211857    -62.67076   -1.3766435   -19.587694    2.3871453   -1.1480613   -8.8715766   -62.449294   -1.2034431   -9.2871524            0            0            0   -1.0522008   -1.0143884   -128.86547 
    9200    129.56615    6444.6228    6349.2243    3901.1505     463.8184    2.6205264  -0.85323481   -19.273781   -62.683148   -1.3050784   -19.634098     2.428909   -1.0972405   -9.0233199   -62.438367   -1.1723127   -9.3195844            0            0            0   -1.0524629   -1.0140506   -128.86858 
    9300    129.56615    6390.9826    6393.6418    3919.6561      464.537    2.6107463  -0.80040821   -19.275941    -62.66356   -1.3088056   -19.653039    2.3695769  -0.93066542   -9.0028709    -62.52439   -1.1447383   -9.4304666            0            0            0   -1.0527251   -1.0137127    -128.8717 
    9400    129.56615    6287.3048     6426.978    3770.3645    464.28949    2.6221239   -0.8375781   -19.315008   -62.648253   -1.2476807   -19.510253    2.3733523  -0.91047804   -9.0202538   -62.510633   -1.0717477   -9.2943797            0            0            0   -1.0529872   -1.0133749   -128.87481 
    9500    129.56615    6373.0457     6285.115    3798.1253    461.72932    2.5442927  -0.90114447   -19.283617   -62.700512   -1.3340475   -19.499372    2.2975191   -1.0001444   -8.9376187   -62.557199   -1.0858302   -9.2549918            0            0            0   -1.0532493    -1.013037   -128.87793 
    9600    129.56615    6066.3427     5906.934    3219.4865    460.96271     2.583039   -0.9745647   -19.255052   -62.669393   -1.4711804   -19.362499    2.3444349    -1.185057   -8.7779091    -62.51601   -1.2222207    -9.086779            0            0            0   -1.0535114   -1.0126992   -128.88105 
    9700    129.56615    5723.5334    5591.7087    2519.5912    462.55074    2.6007891  -0.98117252   -19.282707   -62.655149   -1.4864917   -19.167878    2.4383422   -1.2966269   -8.9250174   -62.485217   -1.2510637   -8.8278361            0            0            0   -1.0537736   -1.0123613   -128.88416 
    9800    129.56615    5301.4874    5212.8264    1965.4695    465.44301    2.6591245  -0.89583491   -19.230268    -62.65022   -1.4709583   -19.012255    2.5207878   -1.1814979   -8.8326213   -62.457442   -1.2214101   -8.6385064            0            0            0   -1.0540357   -1.0120235   -128.88728 
    9900    129.56615    5113.4682    4953.8125       1634.7    465.50503    2.6491766  -0.93739725   -19.124373   -62.641688   -1.3953829   -18.902275    2.4889953   -1.3001511   -8.6588157    -62.42942   -1.2280752   -8.6259573            0            0            0   -1.0542978   -1.0116856    -128.8904 
   10000    129.56615    4914.1527    4709.9079    1084.0234    459.53673    2.6489992  -0.86614104   -18.994197   -62.676153   -1.3850743   -18.855399    2.4714597    -1.154347    -8.583477   -62.495852   -1.1835237   -8.5436427            0            0            0   -1.0545599   -1.0113478   -128.89351 
   10100    129.56615    4392.0394    4373.6672    469.88858    458.52649    2.6055407  -0.97082456   -18.834413   -62.665035   -1.4005957   -18.745045    2.3717273   -1.2314257   -8.4137394   -62.452803   -1.2040043   -8.3815285            0            0            0   -1.0548221   -1.0110099   -128.89663 
   10200    129.56615    4315.4304    4250.2021    190.06799     459.0741    2.5433373  -0.96198589   -18.748828   -62.668226   -1.3686021   -18.640444    2.3220175   -1.2044507   -8.4239742   -62.455507   -1.2358554    -8.346245            0            0            0   -1.0550842   -1.0106721   -128.89975 
   10300    129.56615    3820.9112    3982.2011   -462.37366    460.22528    2.5527364  -0.88567345   -18.703035   -62.638128   -1.3758934   -18.659505    2.3723813   -1.1290899   -8.2730899   -62.493367   -1.2551749   -8.3405788            0            0            0   -1.0553463   -1.0103342   -128.90286 
   10400    129.56615    3630.1431    3569.9621   -1025.3432     457.8129    2.5503752  -0.85220003   -18.605617   -62.657375   -1.2783034   -18.585142    2.3541346   -1.1036345   -8.1959566   -62.493912   -1.1569181    -8.240917            0            0            0   -1.0556084   -1.0099964   -128.90598 
   10500    129.56615    3367.5679    3281.4172   -1538.6783    455.12807    2.5269751   -0.8189316   -18.511223   -62.663534   -1.3970535   -18.556676    2.3310174   -1.0461153   -8.0791139   -62.548715   -1.3266552   -8.2295917            0            0            0   -1.0558705   -1.0096585    -128.9091 
   10600    129.56615    3071.8224    3125.8534    -1906.282    456.74034    2.5539613  -0.85069915   -18.448245   -62.693102    -1.480441   -18.525163    2.3741074   -1.0929793   -8.0880888   -62.518904   -1.3422779   -8.1844349            0            0            0   -1.0561327   -1.0093207   -128.91221 
   10700    129.56615    2972.2565    2875.6112   -2294.8955    457.71511    2.5858981   -0.9645858   -18.428976   -62.712921   -1.4791479   -18.505467     2.368957   -1.1879627   -8.1056541   -62.554303   -1.3075363    -8.134832            0            0            0   -1.0563948   -1.0089828   -128.91533 
   10800    129.56615    2525.6911    2527.4227   -2630.3081    458.83991    2.5960047  -0.94032217   -18.353911   -62.675378   -1.4646323   -18.476204    2.3095231   -1.1884537   -7.9960369   -62.514102   -1.1893313   -8.0828279            0            0            0   -1.0566569    -1.008645   -128.91845 
   10900    129.56615    2585.4567    2367.1141   -2978.5854     456.3659    2.5771509   -0.9413399   -18.254839   -62.678193   -1.4532436   -18.468061    2.2661751    -1.125115   -7.8255014   -62.546105    -1.147598   -8.0948132            0            0            0    -1.056919   -1.0083071   -128.92156 
   11000    129.56615    2257.8746    2312.5259   -3223.5155    453.91977     2.573642  -0.99552497   -18.084041   -62.721227   -1.4490427   -18.567542    2.3056984    -1.118344   -7.6521203    -62.57546   -1.2024818   -8.2395081            0            0            0   -1.0571812   -1.0079693   -128.92468 
   11100    129.56615    2106.7153    1959.0551   -3562.5692    456.25725    2.5743446   -0.9861949   -18.002834   -62.799412   -1.4451023   -18.558026    2.3236755   -1.1785059   -7.6092497   -62.642213   -1.1786147   -8.2839928            0            0            0   -1.0574433   -1.0076314   -128.92779 
   11200    129.56615    2034.0502    1908.0956   -3771.0237     452.9911      2.56602  -0.96560941    -18.03257   -62.721803   -1.4027431   -18.626945    2.3213838   -1.2200672   -7.6306325   -62.541557   -1.1993306    -8.326719            0            0            0   -1.0577054   -1.0072936   -128.93091 
   11300    129.56615    2002.3185    1837.7197    -4089.469    454.64227    2.6354165  -0.95072906   -18.053063   -62.769907   -1.3666664   -18.619701    2.4716615   -1.1837738   -7.6674631   -62.588464   -1.1762792   -8.3270489            0            0            0   -1.0579675   -1.0069557   -128.93403 
   11400    129.56615    2039.0733    1832.5614   -3891.2201    454.08051    2.6297563  -0.96611763   -18.004864     -62.7967   -1.2393372   -18.545425    2.4043747   -1.1748079   -7.5957907   -62.609821   -1.0798178   -8.2919408            0            0            0   -1.0582297   -1.0066179   -128.93714 
   11500    129.56615    1947.3802    1941.5782    -3902.731    454.22696    2.6120517  -0.93734331    -18.08816   -62.771331   -1.2948624    -18.49628    2.4060851   -1.1970709   -7.7226555   -62.572616   -1.1792978     -8.17176            0            0            0   -1.0584918     -1.00628   -128.94026 
   11600    129.56615    2000.7563    1819.5056   -3762.2175    452.55551    2.5373602  -0.98499062   -18.149108   -62.735391   -1.3038631   -18.550078    2.3340061   -1.2960878   -7.7615309   -62.617911   -1.1873302    -8.166469            0            0            0   -1.0587539   -1.0059422   -128.94338 
   11700    129.56615    2220.1825    2114.0353   -3359.5818    455.14775    2.6166055   -1.0110809   -18.200759   -62.661912   -1.3823352   -18.537338    2.4041647   -1.2592893   -7.8147449    -62.56168   -1.2081929   -8.1954703            0            0            0    -1.059016   -1.0056043   -128.94649 
   11800    129.56615    2525.6389     2428.753   -2978.2677    455.88516    2.5960852  -0.93212608    -18.23639   -62.630073   -1.4063839   -18.591698    2.3772342    -1.153321   -7.8393957   -62.466306    -1.179473   -8.2646301            0            0            0   -1.0592782   -1.0052665   -128.94961 
   11900    129.56615    2853.0316    2840.4937   -2310.4324    455.13643     2.592035  -0.90362233   -18.311613   -62.589936   -1.3885182   -18.616188    2.4056047     -1.13509   -7.8759657   -62.465419   -1.1777317   -8.2848433            0            0            0   -1.0595403   -1.0049286   -128.95273 
   12000    129.56615    2952.6243    2937.4841   -1943.4242    457.12596    2.5535715  -0.90021298   -18.380463   -62.592238   -1.3828618   -18.673912    2.3762285    -1.164501   -7.9040587   -62.410319    -1.257714    -8.412441            0            0            0   -1.0598024   -1.0045908   -128.95584 
   12100    129.56615     3261.423    3256.0316   -1516.9569    458.84573    2.5780504  -0.95272279   -18.418639   -62.590784   -1.4214445   -18.661199    2.3285416   -1.2345981   -8.0259659   -62.393016   -1.3001694   -8.3688272            0            0            0   -1.0600645   -1.0042529   -128.95896 
   12200    129.56615    3584.1285    3564.1587   -971.13594    459.74884    2.5723668  -0.86630725   -18.568623   -62.539221   -1.3903156   -18.607496    2.3163327   -1.1390184   -8.2104456   -62.403884   -1.2669993   -8.3581103            0            0            0   -1.0603267   -1.0039151   -128.96208 
   12300    129.56615    3785.9474    3756.3442   -563.86468    461.90975    2.5727471  -0.85785025    -18.73651   -62.540894   -1.3975731   -18.616107    2.3540135   -1.0455954   -8.3980379   -62.439794    -1.240407   -8.3081235            0            0            0   -1.0605888   -1.0035772   -128.96519 
   12400    129.56615    4165.9517    4123.5645    -48.01704    461.32541    2.6301323   -0.8010039   -18.962101   -62.574005   -1.3747611   -18.661394     2.377864   -1.0335607   -8.6238589   -62.443407   -1.2097965   -8.3122679            0            0            0   -1.0608509   -1.0032394   -128.96831 
   12500    129.56615    4485.3013    4469.6513    653.66031    460.58135    2.6617649  -0.78793668   -19.117099    -62.61696   -1.3821497   -18.738939     2.480223   -1.0085008   -8.7899158   -62.388586   -1.1795375   -8.3976387            0            0            0    -1.061113   -1.0029015   -128.97143 
   12600    129.56615    4859.5661    4919.4358    1179.2051    458.70493    2.7260291  -0.85562284   -19.127181   -62.598726    -1.467374   -18.882702    2.5452236   -1.0910092   -8.7827032   -62.355584   -1.2371949   -8.5144048            0            0            0   -1.0613751   -1.0025637   -128.97454 
   12700    129.56615    5114.5481     5086.827    1665.8594    462.15191      2.75001    -0.870624   -19.159163   -62.635316   -1.4530219   -18.997735    2.5633186   -1.0669938   -8.8756976   -62.384552   -1.2365928   -8.6240702            0            0            0   -1.0616373   -1.0022258   -128.97766 
   12800    129.56615    5336.6562    5261.0437     2065.333    461.26087    2.8038932  -0.87549846   -19.364414   -62.637706   -1.4246923   -19.074518    2.6166895   -1.0999657    -9.038974   -62.409689   -1.1704588   -8.7600495            0            0            0   -1.0618994    -1.001888   -128.98077 
   12900    129.56615    5702.0977    5453.1434     2364.429    460.11413    2.7021766   -0.8404612   -19.382915     -62.6109   -1.4134518   -19.279033      2.48516   -1.0519516   -9.0496299   -62.467958   -1.1845962   -9.0163608            0            0            0   -1.0621615   -1.0015501   -128.98389 
   13000    129.56615    5743.6935     5876.783    2738.4067    461.55729    2.7641949  -0.88156981   -19.443761   -62.577119   -1.4327606   -19.350231    2.5490125   -1.0822985   -9.0719625   -62.422209   -1.2272237   -9.0300684            0            0            0   -1.0624236   -1.0012123   -128.98701 
   13100    129.56615    5848.9292    5815.4563    3062.3682    465.66798    2.8012328  -0.95157722    -19.45238   -62.589358   -1.4416493   -19.434535    2.6077092   -1.2024579   -9.2096322   -62.394968   -1.2230294   -9.1268218            0            0            0   -1.0626858   -1.0008744   -128.99012 
   13200    129.56615    6186.2982    6124.3761    3529.3471    463.57155    2.7571842  -0.95065474   -19.456528   -62.552876   -1.3407946   -19.541537     2.571751   -1.1144253   -9.2389137   -62.317762    -1.131019   -9.2991609            0            0            0   -1.0629479   -1.0005366   -128.99324 
   13300    129.56615    6380.1924     6359.521    3705.1994    464.43378    2.6969486  -0.90860166    -19.43144   -62.496999   -1.2268841   -19.575664    2.5458319   -1.0976243   -9.1831647   -62.286015   -1.0625943   -9.2741209            0            0            0     -1.06321   -1.0001987   -128.99636 
   13400    129.56615    6418.3719    6239.4174    3654.8461    465.45801    2.6996905  -0.87620864   -19.342293   -62.545793   -1.2102022   -19.706583    2.4319397   -1.0873206   -9.0198143   -62.352848   -1.0904774   -9.4012218            0            0            0   -1.0634721  -0.99986088   -128.99947 
   13500    129.56615    6518.7598    6384.3038    3900.8169    462.29731    2.6727655  -0.86037916   -19.293633   -62.515291   -1.2002773   -19.750969     2.401646   -1.1296112   -8.8884373   -62.301409   -1.0746766   -9.4552603            0            0            0   -1.0637343  -0.99952303   -129.00259 
   13600    129.56615    6298.6627    6505.9685    3930.1324    463.98524    2.6046713  -0.91155693   -19.246603   -62.519942    -1.313293    -19.81644    2.3484163   -1.2041578   -8.8199972   -62.344633   -1.1497575   -9.5784367            0            0            0   -1.0639964  -0.99918518   -129.00571 
   13700    129.56615    6392.0871    6217.0032    3804.8646    464.65421    2.6098053  -0.96774625   -19.221268   -62.521634    -1.323791   -19.878116    2.3903319    -1.269215    -8.912937   -62.301875   -1.0966897   -9.6216735            0            0            0   -1.0642585  -0.99884733   -129.00882 
   13800    129.56615    6268.0006    6330.3609    3432.3918    461.49665    2.6413836  -0.91586614   -19.185743   -62.542618   -1.3418062   -19.832218    2.4485976   -1.2126091   -8.8911958   -62.342073   -1.1583904   -9.5804231            0            0            0   -1.0645206  -0.99850948   -129.01194 
   13900    129.56615    5886.8568    6016.2918    3178.1441    460.48587    2.6502544  -0.89210805   -19.142192   -62.571642   -1.3036315    -19.74902    2.4734876   -1.1803951   -8.8252329   -62.367484    -1.101524   -9.5587095            0            0            0   -1.0647828  -0.99817163   -129.01506 
   14000    129.56615    5588.3298    5321.5072    2355.0806    467.16372    2.6325165  -0.86958022   -19.130335   -62.647795   -1.3688871   -19.628773    2.4364395   -1.1240679   -8.8102267   -62.438249   -1.1556909   -9.3161107            0            0            0   -1.0650449  -0.99783378   -129.01817 
   14100    129.56615    5314.5079    5213.9846    2099.1733     464.1024    2.6706089  -0.91709208   -19.066339   -62.638716   -1.3957471   -19.506633    2.4843177   -1.1266362   -8.7270152   -62.447296   -1.2327149   -9.2362423            0            0            0    -1.065307  -0.99749593   -129.02129 
   14200    129.56615    5227.5304    5085.0051    1612.4311    463.88444    2.6931011  -0.81845384    -19.02951     -62.6507   -1.3654826    -19.35726    2.4788761  -0.98155703   -8.7084245   -62.521714   -1.1574994   -9.0743402            0            0            0   -1.0655691  -0.99715808   -129.02441 
   14300    129.56615    4921.7279     4841.039    1208.6935    459.27694    2.6399049  -0.74045014   -18.990543   -62.651502     -1.41724   -19.213706    2.4118053  -0.89502131     -8.61982   -62.532053   -1.2177455   -8.9035176            0            0            0   -1.0658313  -0.99682023   -129.02752 
   14400    129.56615    4558.9346    4618.0005    595.15161    460.24787    2.6451969  -0.67690799   -18.905949   -62.675825   -1.3757667   -19.053769    2.4258256   -0.7964723   -8.5601279   -62.516987   -1.2222355   -8.6698296            0            0            0   -1.0660934  -0.99648238   -129.03064 
   14500    129.56615     4309.889    4166.8756    189.98495    461.35789    2.6002313  -0.71426741    -18.85705   -62.714856   -1.2971091   -18.887637    2.3834173  -0.90054823   -8.5220474   -62.586942   -1.1085625   -8.6055417            0            0            0   -1.0663555  -0.99614453   -129.03375 
   14600    129.56615    4091.5568    4042.5014   -323.91662    458.83095    2.6024067  -0.74411979   -18.856711   -62.587465   -1.3617873   -18.795753    2.3326106    -0.911546    -8.518482   -62.509316   -1.1495005   -8.5244779            0            0            0   -1.0666176  -0.99580668   -129.03687 
   14700    129.56615    3743.0125    3556.4895   -814.65886      459.056    2.5291335  -0.78362394   -18.787338   -62.626458   -1.3722556   -18.675825    2.1986335  -0.96846037   -8.4228108   -62.515299   -1.1621833   -8.2799556            0            0            0   -1.0668797  -0.99546883   -129.03999 
   14800    129.56615    3420.2197    3306.4368   -1450.6426    456.32082    2.5446965  -0.82786427    -18.79589      -62.672   -1.3381703   -18.485602    2.2328804   -1.0316991   -8.4713184   -62.527157   -1.0927995   -8.0440324            0            0            0   -1.0671419  -0.99513098    -129.0431 
   14900    129.56615    3224.3093    3080.8187   -1976.8522    457.42358    2.5178819  -0.92453012    -18.73381   -62.686383   -1.3316668   -18.476884    2.2485869   -1.1590706   -8.4641157   -62.490942    -1.110626   -8.0757937            0            0            0    -1.067404  -0.99479313   -129.04622 
   15000    129.56615    2936.3377    2902.1714    -2082.947    458.56901    2.4585503  -0.93990584   -18.721208   -62.734864   -1.3207381   -18.450403    2.2143412   -1.1674949   -8.3741934   -62.489888   -1.1373038   -8.1076774            0            0            0   -1.0676661  -0.99445528   -129.04934 
   15100    129.56615    2799.3662    2750.8117   -2586.0281    458.07045    2.5382741  -0.94507051   -18.682735   -62.708955   -1.3968776   -18.415903    2.2879529   -1.2351775   -8.3454783   -62.449991   -1.2001042   -8.1323312            0            0            0   -1.0679282  -0.99411744   -129.05245 
   15200    129.56615    2544.3877    2549.3411   -2978.6333    455.72918    2.5450478  -0.91194061   -18.655719   -62.750867   -1.3465693   -18.473581    2.2620746   -1.1779843    -8.347748   -62.473115   -1.1002864   -8.1391045            0            0            0   -1.0681904  -0.99377959   -129.05557 
   15300    129.56615    2292.2465    2313.0782   -3261.9639    455.16247    2.5649392  -0.99738613   -18.616882   -62.727869   -1.2453346   -18.420645    2.3873929   -1.2864167   -8.2715077    -62.54979  -0.99118244   -8.1224553            0            0            0   -1.0684525  -0.99344174   -129.05869 
   15400    129.56615    1963.6119    2031.7266   -3694.7409    455.91597     2.535079  -0.95284287   -18.568915   -62.764632   -1.2540769   -18.460406    2.3603395   -1.2676484   -8.2212273    -62.59289   -1.0889527   -8.1568478            0            0            0   -1.0687146  -0.99310389    -129.0618 
   15500    129.56615    2121.1721    2083.5504   -3731.3992    452.47123    2.5497262  -0.88206101   -18.448684   -62.800601   -1.2840815   -18.546842      2.38619   -1.1687359   -8.1290575   -62.691383   -1.1799121   -8.2609572            0            0            0   -1.0689767  -0.99276604   -129.06492 
   15600    129.56615    2129.9613    2081.9818   -3746.0004    453.45836    2.5912317  -0.87007759   -18.416035   -62.780818   -1.2716935   -18.568019     2.379161   -1.0934871   -8.1129602   -62.651891   -1.1909583   -8.3012083            0            0            0   -1.0692389  -0.99242819   -129.06804 
   15700    129.56615    1998.8139    2001.9481    -3859.111    456.86844    2.5989542  -0.90867908   -18.476979   -62.779851   -1.3472273    -18.57976    2.3205734   -1.0940706   -8.1353138   -62.649002   -1.1546197   -8.2051772            0            0            0    -1.069501  -0.99209034   -129.07115 
   15800    129.56615    2109.7854    2153.6458   -3681.8961    451.87028    2.6227923  -0.90970509   -18.401176   -62.708882   -1.4016433   -18.620069    2.3566774   -1.0540679   -8.0878694   -62.491446   -1.2176222   -8.2259929            0            0            0   -1.0697631  -0.99175249   -129.07427 
   15900    129.56615    2423.6748    2291.8783   -3528.1556      452.742    2.5857595  -0.84108116   -18.357827   -62.720917   -1.5037708   -18.671022    2.3222013   -1.0313752   -8.0097892   -62.515175   -1.3213108   -8.3614235            0            0            0   -1.0700252  -0.99141464   -129.07739 
   16000    129.56615    2326.1324    2329.8714   -3265.0865    455.02723    2.4626123  -0.89877408   -18.251297   -62.684809   -1.4740095     -18.7158    2.2412433   -1.0811344   -7.9123091    -62.51513   -1.2674088   -8.4789549            0            0            0   -1.0702874  -0.99107679    -129.0805 
   16100    129.56615    2497.2449    2641.1715   -2706.0087     457.4651    2.4329127   -1.0433662   -18.292918   -62.643203   -1.4573253   -18.743847    2.2974975   -1.3148217   -7.9667184   -62.489551   -1.2335787   -8.4573437            0            0            0   -1.0705495  -0.99073894   -129.08362 
   16200    129.56615    2793.6155    2848.6924   -2340.2298    457.99283    2.4680782  -0.96888114   -18.344149   -62.633681   -1.3614741   -18.830564    2.3212128   -1.1918239   -8.0171883   -62.482071   -1.1737319   -8.5265323            0            0            0   -1.0708116  -0.99040109   -129.08673 
   16300    129.56615    3211.7066     3058.111   -1806.9988    458.01607    2.4463202  -0.85598819    -18.48751   -62.682107   -1.3811404   -18.934267    2.3007029   -1.1334217   -8.1719329    -62.49841   -1.2171067   -8.6153257            0            0            0   -1.0710737  -0.99006324   -129.08985 
   16400    129.56615    3384.3145     3257.301   -1426.6013    457.59559    2.4812311  -0.84940417   -18.586979   -62.700422   -1.4325277   -19.034508    2.2829454   -1.1274875   -8.2790648   -62.528385   -1.2730323   -8.7033494            0            0            0   -1.0713358  -0.98972539   -129.09297 
   16500    129.56615    3686.3703    3832.7952   -692.16637    456.26337     2.551771  -0.89271675   -18.662023   -62.776683   -1.3547244   -19.016592    2.3524971   -1.2018663   -8.3195038   -62.575069   -1.1293471   -8.6871801            0            0            0    -1.071598  -0.98938754   -129.09608 
   16600    129.56615    3801.8111    3899.8491   -389.74837    458.98214    2.5615548  -0.84398659   -18.759936   -62.745567   -1.3930903   -19.075885    2.3271058   -1.0894324   -8.4073208   -62.607095   -1.1356697   -8.7789373            0            0            0   -1.0718601  -0.98904969    -129.0992 
   16700    129.56615    4268.2151    4211.0976    54.891697    458.65084    2.5924204  -0.89001055    -18.88945   -62.719845   -1.3976216   -19.053036    2.3930928   -1.1499326   -8.4897534   -62.580578   -1.1746972   -8.7050629            0            0            0   -1.0721222  -0.98871184   -129.10232 
   16800    129.56615    4414.2664    4544.9925    473.39299    461.12579    2.5835709  -0.91446641   -19.016849   -62.762474   -1.4348305   -19.118641    2.3530104   -1.1925282   -8.7014001   -62.615091   -1.2220854   -8.7416889            0            0            0   -1.0723843  -0.98837399   -129.10543 
   16900    129.56615    4599.0314    4768.3106    790.18068    461.65342    2.5812993  -0.98521805   -19.127824   -62.769266   -1.4321523     -19.1772    2.3294025   -1.2474386   -8.8431125   -62.633258   -1.2906655   -8.8928714            0            0            0   -1.0726465  -0.98803614   -129.10855 
   17000    129.56615    5096.1352    5054.3364    1376.7287    461.53988    2.5748551   -1.0205222   -19.194816   -62.715715   -1.4832085    -19.25432    2.3015155   -1.3009039   -8.9107542   -62.562088   -1.3269622   -9.0643192            0            0            0   -1.0729086  -0.98769829   -129.11167 
   17100    129.56615    5302.5886    5295.8497    2017.3284    464.92732    2.5779347   -1.0074072   -19.286145   -62.707811   -1.4860442   -19.298691    2.3424389   -1.1932027   -9.0369819   -62.552787   -1.3602699   -9.0326267            0            0            0   -1.0731707  -0.98736044   -129.11478 
   17200    129.56615     5590.065    5559.0951    2324.4476    463.62499    2.5518586   -0.9563713   -19.415974   -62.755317   -1.4483092   -19.256506    2.3124465   -1.0852809   -9.2043641   -62.569421    -1.276274   -8.9561232            0            0            0   -1.0734328  -0.98702259    -129.1179 
   17300    129.56615     5968.326    5829.4843    2879.9962    461.31552    2.5078329  -0.98850942   -19.576482   -62.754029   -1.3777886   -19.317217    2.2993746   -1.1610706   -9.3212739   -62.535003   -1.2251267   -8.9420956            0            0            0    -1.073695  -0.98668474   -129.12102 
   17400    129.56615    5940.4103    5991.0056    3022.3681     463.7238    2.5496426  -0.97965007   -19.606668    -62.66055   -1.4342976   -19.429997    2.3407163   -1.1532537   -9.2566022   -62.418811   -1.2389163   -9.0848946            0            0            0   -1.0739571  -0.98634689   -129.12413 
   17500    129.56615    6249.6646    6253.8087    3594.3446    461.50987    2.5586147  -0.99082945   -19.684108   -62.674954   -1.3560529   -19.497455    2.3237118   -1.1997183   -9.3677825   -62.425698   -1.1836163   -9.1960678            0            0            0   -1.0742192  -0.98600904   -129.12725 
   17600    129.56615     6395.147    6250.3896    3736.0069    464.36049    2.5302134   -0.9435112   -19.823795   -62.659454   -1.3637147   -19.563113    2.2673831   -1.2270994   -9.5244185    -62.43907   -1.1527404   -9.3013703            0            0            0   -1.0744813  -0.98567119   -129.13037 
   17700    129.56615     6421.284    6292.0772    3638.8069    463.45364    2.5227379  -0.94940907   -19.793769   -62.656592   -1.4196851   -19.673598    2.3041868    -1.250944   -9.6214274   -62.481129   -1.2643124   -9.4534191            0            0            0   -1.0747435  -0.98533334   -129.13348 
   17800    129.56615    6309.8547    6304.1789    3714.3892    465.39236    2.6065942  -0.93419182    -19.79277    -62.67315   -1.4449828   -19.749034     2.398764    -1.284536   -9.6018672   -62.539434   -1.2683153   -9.5068956            0            0            0   -1.0750056   -0.9849955    -129.1366 
   17900    129.56615    6370.1604    6430.2955    3773.3454    463.36058    2.6454496  -0.91867239   -19.791202   -62.634291   -1.4546008   -19.739293    2.4271139   -1.2592272   -9.5415847   -62.533065   -1.2580217   -9.5229195            0            0            0   -1.0752677  -0.98465765   -129.13971 
   18000    129.56615    6392.8516    6392.0999     3645.787    464.09852    2.6115215  -0.94283422   -19.676509   -62.578561   -1.4311558   -19.740775    2.3636235   -1.2236172   -9.3936391   -62.431242   -1.2441307   -9.5420161            0            0            0   -1.0755298   -0.9843198   -129.14283 
   18100    129.56615    6204.0439    6064.7677    3484.8205    463.85786     2.617753  -0.98079074    -19.58013   -62.595397   -1.4143022   -19.722542    2.4037142   -1.2139337   -9.2222802   -62.461363   -1.2439424   -9.4414668            0            0            0    -1.075792  -0.98398195   -129.14595 
   18200    129.56615    5996.6444    5782.0798    2905.6895    462.56297    2.6086511  -0.95966836   -19.574401    -62.60632   -1.4045975    -19.70433    2.3705086   -1.1481731   -9.2979491   -62.449864   -1.2199748     -9.44164            0            0            0   -1.0760541   -0.9836441   -129.14906 
   18300    129.56615    5728.7294    5516.3412    2481.0488    462.04541      2.60696  -0.91879576   -19.447827   -62.593202   -1.4193414     -19.6521     2.408618    -1.097211    -9.205473   -62.425151   -1.1991755    -9.358411            0            0            0   -1.0763162  -0.98330625   -129.15218 
   18400    129.56615    5458.2174    5558.6987    1939.9914    460.93006    2.6592218  -0.86494532   -19.243953    -62.62455   -1.4222131   -19.602532    2.4539014   -1.0235858   -8.9614707   -62.454479   -1.1982721   -9.2607138            0            0            0   -1.0765783   -0.9829684    -129.1553 
   18500    129.56615    5244.0775    5191.6361    1629.8975    460.83732    2.7015468  -0.84564262   -19.079136   -62.677874   -1.4888951   -19.526896    2.4967299     -1.04576   -8.7277819   -62.449171   -1.2988275   -9.1974717            0            0            0   -1.0768404  -0.98263055   -129.15841 
   18600    129.56615    4962.3397    4825.9368    1093.2207    461.67869    2.6153185   -0.8328816   -18.975579   -62.625974   -1.4890689   -19.334464    2.4217978   -1.0195981   -8.6452106   -62.380869   -1.3151488   -9.0731656            0            0            0   -1.0771026   -0.9822927   -129.16153 
   18700    129.56615    4439.4713    4494.5737    559.35976     463.5206    2.5854035  -0.85606528   -18.906452   -62.601696   -1.4647869   -19.303955    2.3825007    -1.035072   -8.6228505   -62.369734   -1.2921852   -9.0396387            0            0            0   -1.0773647  -0.98195485   -129.16465 
   18800    129.56615    4492.3055    4325.5391    256.50221    461.16929    2.6190785   -0.8739774   -18.813623   -62.660023   -1.3950046    -19.19903    2.4595837   -1.0903137   -8.5323195   -62.408389   -1.2001074    -8.895486            0            0            0   -1.0776268    -0.981617   -129.16776 
   18900    129.56615    4350.4661     4099.282   -186.34318    457.61709    2.5937425  -0.91675125   -18.827938   -62.620408    -1.360009   -19.139168    2.4509554    -1.155592   -8.4703964   -62.428136   -1.2009946   -8.8403621            0            0            0   -1.0778889  -0.98127915   -129.17088 
   19000    129.56615    3810.5797    3819.8497   -738.04618    458.75785    2.5785462  -0.93333917   -18.756597   -62.547819   -1.3518072   -19.087826    2.4349021   -1.1726417   -8.3952845   -62.430321   -1.2013585   -8.7858056            0            0            0   -1.0781511   -0.9809413     -129.174 
   19100    129.56615    3371.9234    3345.9543   -1303.9662    461.93021    2.6144878  -0.87880729   -18.806926   -62.611219   -1.4349832   -18.996113    2.4108248    -1.206622    -8.509479    -62.49114   -1.2387379   -8.6871436            0            0            0   -1.0784132  -0.98060345   -129.17711 
   19200    129.56615    3332.6023    3116.9918   -1902.3711    458.03211    2.6606376  -0.79846483    -18.80449    -62.63771    -1.438459   -18.902596    2.4057951   -1.1224611   -8.5016458   -62.480813   -1.2496425   -8.5889408            0            0            0   -1.0786753   -0.9802656   -129.18023 
   19300    129.56615    3069.4606    3084.9378   -2289.7565    454.54033    2.5987093  -0.87552189   -18.735718   -62.662308   -1.4268812   -18.785825    2.3598466   -1.2168267   -8.4446195   -62.528247   -1.2414926   -8.4995503            0            0            0   -1.0789374  -0.97992775   -129.18335 
   19400    129.56615    2771.8638    2799.1365    -2542.442    457.40747    2.5660155  -0.91747268    -18.77164   -62.692594   -1.3417183   -18.763188    2.3130002   -1.1943473   -8.4676469   -62.532078    -1.153144   -8.4669712            0            0            0   -1.0791996   -0.9795899   -129.18646 
   19500    129.56615    2611.7572    2687.9694   -2806.2126    456.16728    2.5992097   -1.0173187   -18.762141   -62.708951   -1.3416221   -18.736069    2.3865435   -1.2367705   -8.4357364   -62.510993   -1.1186453   -8.4979527            0            0            0   -1.0794617  -0.97925205   -129.18958 
   19600    129.56615    2487.6228    2178.4972   -3215.4809    457.23187    2.5933557   -1.0140164   -18.716126   -62.687705   -1.3412689   -18.641876    2.3672995   -1.2276424   -8.3934434   -62.503362   -1.1369945   -8.3592199            0            0            0   -1.0797238   -0.9789142   -129.19269 
   19700    129.56615      2177.48    2159.0923   -3367.2782    456.28121    2.5729328   -0.9395922   -18.654683   -62.710587   -1.3601254   -18.549122    2.3351677    -1.142416   -8.3957009   -62.537197   -1.1736673   -8.1720934            0            0            0   -1.0799859  -0.97857635   -129.19581 
   19800    129.56615    2146.6702    2211.0516   -3633.4808    455.32658    2.5701418  -0.97346175   -18.722845   -62.757311   -1.3234839   -18.465328    2.3771696   -1.1647504   -8.4169669   -62.558134    -1.160878   -8.1467779            0            0            0   -1.0802481   -0.9782385   -129.19893 
   19900    129.56615    2226.3038     2127.967   -3586.3081    454.13324    2.5497579  -0.95406649   -18.656753   -62.774536   -1.3990983   -18.482925    2.3961178   -1.1096059   -8.3453208   -62.556948   -1.2023183   -8.1683757            0            0            0   -1.0805102  -0.97790065   -129.20204 
   20000    129.56615    2110.3216    1958.5147   -3805.3127    455.01718    2.5800745  -0.95294747   -18.681292   -62.732826   -1.3639956   -18.529483    2.4073684   -1.1246925   -8.3703467   -62.532914   -1.1773784   -8.2279866            0            0            0   -1.0807723   -0.9775628   -129.20516 
   20100    129.56615    2079.4503    2101.1137   -3772.2671    455.44973    2.5679073   -0.9305074   -18.695373   -62.775059   -1.3554919      -18.572    2.3439143    -1.128057    -8.378506   -62.604971   -1.1329415   -8.2704002            0            0            0   -1.0810344  -0.97722495   -129.20828 
   20200    129.56615    2184.7794    2327.3043   -3482.2534     455.5982    2.5030348  -0.95490277   -18.799347   -62.788789    -1.350591   -18.615462    2.2835281   -1.1580791   -8.4686336    -62.61507   -1.1328715     -8.32134            0            0            0   -1.0812965   -0.9768871   -129.21139 
   20300    129.56615    2132.7039    2219.6789   -3398.0295    459.54766    2.4558415  -0.93432238   -18.828452   -62.777143   -1.3803058   -18.653451    2.2212372   -1.1945254   -8.4810548   -62.649344     -1.15022   -8.4183499            0            0            0   -1.0815587  -0.97654925   -129.21451 
   20400    129.56615    2446.4702    2522.0781   -2933.9126    457.89025    2.4426252   -0.8769016   -18.797077   -62.737047   -1.4213432   -18.810236    2.2163717   -1.1572596   -8.4465271   -62.618963   -1.2179342   -8.6051439            0            0            0   -1.0818208   -0.9762114   -129.21763 
   20500    129.56615    2883.4762    2807.6548   -2329.8421     458.3983    2.4892965  -0.89002977   -18.777106   -62.730539    -1.455438   -18.874522    2.2781249    -1.129322   -8.4599593   -62.584845    -1.276994   -8.6262798            0            0            0   -1.0820829  -0.97587356   -129.22074 
   20600    129.56615    3125.9208     3123.495   -1880.6562    457.07559    2.5022131  -0.81709217    -18.80763   -62.724773   -1.4619449   -19.009377    2.2652869   -1.0814023   -8.4940513   -62.588198   -1.3036031   -8.6736366            0            0            0    -1.082345  -0.97553571   -129.22386 
   20700    129.56615    3457.3145    3439.6665   -1561.0294    458.33756    2.5045265  -0.84543741   -18.906103   -62.707988   -1.3866114   -19.052414    2.2707815   -1.1057497   -8.6279406   -62.590065   -1.2316979   -8.7384386            0            0            0   -1.0826072  -0.97519786   -129.22698 
   20800    129.56615    3778.9812    3640.2789   -837.66872    458.59902    2.4948614  -0.86559708    -18.93705   -62.715143   -1.3681511   -19.028771    2.2353556   -1.1293279   -8.6345677   -62.624344   -1.2045533   -8.7911325            0            0            0   -1.0828693  -0.97486001   -129.23009 
   20900    129.56615    3912.2029    4001.6796    -427.7701    460.74086    2.5673487  -0.87834014   -18.858043   -62.702071   -1.3606224   -19.159745    2.3047607   -1.1380375   -8.5352613   -62.567015   -1.2015322   -8.8568957            0            0            0   -1.0831314  -0.97452216   -129.23321 
   21000    129.56615    4265.4178    4213.9042   -50.410729    459.36987    2.5192917  -0.81813583   -18.944769   -62.695417   -1.3956515   -19.191978    2.2893726   -1.0515763   -8.6026244     -62.5739   -1.2275837   -8.8893608            0            0            0   -1.0833935  -0.97418431   -129.23632 
   21100    129.56615    4500.4175    4451.9489    421.34034    459.44811    2.5565771  -0.82217913   -18.953978   -62.664152   -1.3904671   -19.264608    2.3603985   -1.0276315   -8.6053564   -62.516589   -1.2294899   -8.9126233            0            0            0   -1.0836557  -0.97384646   -129.23944 
   21200    129.56615    4761.1308    4652.8186    861.81641    461.97375    2.5732131  -0.81728162   -19.040463   -62.725897   -1.4227558   -19.367386    2.3821224   -1.0415579   -8.7045298   -62.540405   -1.2490157     -9.02514            0            0            0   -1.0839178  -0.97350861   -129.24256 
   21300    129.56615    5108.8249    4951.0196    1426.2446    462.58337    2.5840626  -0.84652235   -19.186144   -62.701066   -1.4051878   -19.528491    2.4017187   -1.0546833    -8.897904   -62.473891   -1.2403384   -9.2327027            0            0            0   -1.0841799  -0.97317076   -129.24567 
   21400    129.56615    5257.5042    5372.7628    1858.5874    463.32608    2.5748426  -0.92020887   -19.229129   -62.685877    -1.323953   -19.645441    2.3296858   -1.1213729   -8.9647638   -62.440442   -1.1355558   -9.3769062            0            0            0    -1.084442  -0.97283291   -129.24879 
   21500    129.56615     5423.277    5470.1322    2292.1505    464.94888    2.6601058  -0.90702939   -19.385224     -62.6924   -1.3468581   -19.767364    2.4367264   -1.1360974   -9.0923835   -62.450389   -1.1832233   -9.5110605            0            0            0   -1.0847042  -0.97249506   -129.25191 
   21600    129.56615    5822.8989     5757.757    2792.6277    462.94672    2.6801026  -0.99248546   -19.527908   -62.653906   -1.4046709   -19.814373    2.4803352   -1.1997166   -9.3045704   -62.431712   -1.1828746   -9.5593807            0            0            0   -1.0849663  -0.97215721   -129.25502 
   21700    129.56615    5718.7077    5778.0889    2919.4052    466.53576    2.6644791  -0.89778988    -19.69713     -62.6462   -1.3519824   -19.839425    2.4731758   -1.0393718   -9.4054093   -62.402487    -1.181445   -9.5919282            0            0            0   -1.0852284  -0.97181936   -129.25814 
   21800    129.56615    6094.1503    6117.8201    3401.7965    464.84799    2.6584489  -0.84674966   -19.762552   -62.629082   -1.3605009    -19.79992    2.4546869   -1.0978388   -9.4449356   -62.416602   -1.1702813   -9.5943699            0            0            0   -1.0854905  -0.97148151   -129.26126 
   21900    129.56615    6280.1282    6195.7305    3575.6205    463.69969    2.6587931  -0.93105671   -19.757366   -62.622426    -1.428184   -19.871059    2.4621953   -1.2055415   -9.4672925   -62.450332   -1.2086714   -9.6496944            0            0            0   -1.0857527  -0.97114366   -129.26437 
   22000    129.56615    6319.9143    6326.4186    3835.4235    463.61524    2.6787392  -0.90419284   -19.797371   -62.626297   -1.3958976   -19.927529    2.4602245   -1.2020579   -9.5804544   -62.489426    -1.160499   -9.6915713            0            0            0   -1.0860148  -0.97080581   -129.26749 
   22100    129.56615     6275.722    6271.8488     3653.863    468.05354    2.6626238  -0.87655192   -19.879482   -62.610702   -1.3840705   -19.949468    2.4217404   -1.1367213   -9.6867076   -62.453681   -1.1390399   -9.6563938            0            0            0   -1.0862769  -0.97046796   -129.27061 
   22200    129.56615    6299.3335    6317.0355    3717.1362    464.17621    2.6393685  -0.91357953    -19.83586   -62.636266   -1.3687417   -19.838109    2.4246673   -1.1611634    -9.542096   -62.458186   -1.1366159    -9.576801            0            0            0    -1.086539  -0.97013011   -129.27372 
   22300    129.56615    6211.2257    6264.4158    3575.4425    465.67253    2.6409263  -0.84242783   -19.841672   -62.614184   -1.3519951   -19.786419    2.4429848   -1.1034672   -9.5978744   -62.455921   -1.2052227   -9.6022197            0            0            0   -1.0868011  -0.96979226   -129.27684 
   22400    129.56615    6171.8944     6220.844    3395.7809     461.3286    2.6206142  -0.84658713   -19.783843   -62.604895   -1.4279617   -19.709646    2.4380988   -1.1209943   -9.4947254   -62.398745   -1.3249378   -9.4691585            0            0            0   -1.0870633  -0.96945441   -129.27996 
   22500    129.56615    5946.9551    5931.7088    3119.3041    465.86702    2.5913126   -0.8682657   -19.785398   -62.639102   -1.4436507   -19.720259    2.4017663   -1.1616611   -9.5181462   -62.448313   -1.4205922   -9.4958307            0            0            0   -1.0873254  -0.96911656   -129.28307 
   22600    129.56615    5549.7199    5659.4245    2553.5949    463.06365    2.5671632  -0.86272701   -19.765995   -62.641056   -1.3587258   -19.621438    2.3437517   -1.1421018    -9.454595   -62.434107   -1.2837048   -9.3848835            0            0            0   -1.0875875  -0.96877871   -129.28619 
   22700    129.56615    5399.1941    5333.7861    2061.8303    463.42056    2.5663867  -0.90449772   -19.719987   -62.645462   -1.4098541   -19.507754    2.3392559   -1.1302348   -9.4825145   -62.445784   -1.2701499   -9.2460435            0            0            0   -1.0878496  -0.96844086    -129.2893 
   22800    129.56615    5274.6157    5088.0095    1424.6493    462.33987    2.5872448  -0.90526839    -19.61691   -62.670758   -1.3262622   -19.527409    2.3795495   -1.1071628   -9.3446137   -62.497307   -1.1836531   -9.1840823            0            0            0   -1.0881118  -0.96810301   -129.29242 
   22900    129.56615    4861.1294    4787.3391    1087.4126     461.7299    2.5934631  -0.93441708    -19.42193    -62.69831   -1.2930136   -19.526616    2.3857829   -1.1121416   -9.1082701   -62.525796   -1.0951406   -9.2019222            0            0            0   -1.0883739  -0.96776516   -129.29554 
   23000    129.56615    4624.6949    4436.8725    710.42896    460.34555    2.6252309   -0.8740453   -19.316448    -62.68779   -1.2946205   -19.401528    2.4154975   -1.0587912   -9.0083503   -62.522104   -1.0830157   -9.1441134            0            0            0    -1.088636  -0.96742731   -129.29865 
   23100    129.56615    4388.7864    4349.3875    231.50946    459.22013    2.5673997   -0.8674397   -19.194565   -62.709493   -1.2721308   -19.277498    2.3370731   -1.1324132   -8.8619699   -62.553243   -1.0162812   -9.0320241            0            0            0   -1.0888981  -0.96708946   -129.30177 
   23200    129.56615    4302.9625    4106.2661   -185.25963     460.0242    2.5581613  -0.78907706     -19.1085   -62.690939   -1.2788199   -19.252775    2.3148667   -1.0565174   -8.8508501   -62.530006  -0.98576474   -8.9729107            0            0            0   -1.0891603  -0.96675162   -129.30489 
   23300    129.56615    4003.8474    3865.9141    -514.8761    458.60335    2.6097576  -0.78638159   -19.013964    -62.69153   -1.2618645   -19.155085    2.3837733   -1.0305333   -8.7844443   -62.559779    -1.010439   -8.8784762            0            0            0   -1.0894224  -0.96641377     -129.308 
   23400    129.56615    3520.7531    3402.0121   -1325.8913    458.64776    2.5618066  -0.88445861    -18.90251   -62.718577    -1.226681    -19.00893    2.3024643   -1.0692823   -8.6077113   -62.570846   -1.0180015   -8.6884685            0            0            0   -1.0896845  -0.96607592   -129.31112 
   23500    129.56615    3186.2576    3142.8473   -1704.0974    462.87602    2.5548272  -0.93532629   -18.779704   -62.744023   -1.2825042   -19.027428    2.3042129    -1.142101   -8.5139288   -62.603288   -1.0565249   -8.6748863            0            0            0   -1.0899466  -0.96573807   -129.31424 
   23600    129.56615    3055.2992    2863.4188   -2201.2349    458.70438    2.5648301  -0.82704724    -18.74101     -62.8179   -1.2693929   -19.065222    2.3098581  -0.98711948   -8.4264554   -62.592796   -1.0185378   -8.7380998            0            0            0   -1.0902088  -0.96540022   -129.31735 
   23700    129.56615     2710.622    2786.4691   -2476.9612    457.80071    2.6347894  -0.84461283   -18.737827   -62.800612   -1.3173691   -19.051756    2.3844127   -1.0347365   -8.3917065   -62.571146   -1.0594937   -8.7716623            0            0            0   -1.0904709  -0.96506237   -129.32047 
   23800    129.56615    2626.2932    2544.9034   -2699.0407    457.11301    2.5877776  -0.83541592   -18.674065   -62.743485   -1.3091907   -19.078017    2.3445128   -1.0538376    -8.342753   -62.498493   -1.1360738   -8.6694726            0            0            0    -1.090733  -0.96472452   -129.32359 
   23900    129.56615    2431.4155    2326.6865   -3013.1169    457.64022    2.6008444  -0.80363402   -18.632267   -62.765918   -1.3749269   -19.027457    2.4110585  -0.97394231   -8.3470109   -62.608393   -1.1987636   -8.7393418            0            0            0   -1.0909951  -0.96438667    -129.3267 
   24000    129.56615    2254.6203    2219.9683   -3422.4126      453.723    2.5605333  -0.81938734   -18.646993   -62.726341   -1.3829169   -19.072057    2.3846626   -1.0720199   -8.3878436   -62.572338   -1.2504967    -8.834154            0            0            0   -1.0912572  -0.96404882   -129.32982 
   24100    129.56615    2183.5176    2166.4549   -3703.4804    455.38058    2.5573091  -0.82045792    -18.60641   -62.696171    -1.362197   -19.033373    2.4024745   -1.0948983   -8.4055672   -62.596867   -1.1858318   -8.7531613            0            0            0   -1.0915194  -0.96371097   -129.33294 
[...]
  998900    129.56615    4007.0613      3935.29    -339.0713    462.11382 -0.064136522    2.2987541   -49.770924   -65.350977    1.9093096   -49.918679  -0.27209697    2.1022621   -39.532951   -65.197221      2.03878   -39.712386            0            0            0   -3.6467012    2.3296472   -159.71225 
  999000    129.56615    4092.6887    4055.1983   -269.40696    460.26321 -0.087939685    2.3200128   -49.753021   -65.353735    1.9024781   -49.852612  -0.28260729    2.0700895   -39.519877   -65.145196    2.0604982   -39.560963            0            0            0   -3.6469634     2.329985   -159.71536 
  999100    129.56615      3901.55    4007.5454   -431.02639    459.04403 -0.089829975    2.3417173   -49.777624   -65.352733    1.8507373   -49.856001  -0.25022553    2.0928207   -39.592875   -65.124565    2.0492216   -39.604448            0            0            0   -3.6472255    2.3303229   -159.71848 
  999200    129.56615    4044.4695    4105.9368   -246.38861    460.55117  -0.10045737    2.3567805   -49.791355   -65.348492    1.8163193    -49.83087  -0.29854305    2.1628294   -39.562591   -65.122379    1.9943555   -39.637726            0            0            0   -3.6474876    2.3306607    -159.7216 
  999300    129.56615    4381.9138    4335.2075    20.594178    459.22443 -0.092755752    2.4135912   -49.807904   -65.338265     1.766326   -49.801651  -0.31945012     2.262759   -39.605245   -65.131955    1.9987594   -39.635689            0            0            0   -3.6477497    2.3309986   -159.72471 
  999400    129.56615    4237.2312    4267.5299    156.99601    463.74162 -0.089299025     2.445635   -49.829385   -65.351132    1.7790685   -49.824004  -0.33256881    2.2916702   -39.662641   -65.147966    2.0235581   -39.664939            0            0            0   -3.6480119    2.3313364   -159.72783 
  999500    129.56615    4363.1415    4149.9134   -13.359527    460.88045 -0.097200601    2.4059761   -49.921599   -65.414703    1.7789411   -49.872939  -0.35204978    2.2047842   -39.762629   -65.263036    2.0195983    -39.69263            0            0            0    -3.648274    2.3316743   -159.73095 
  999600    129.56615    4251.1624    4274.5895    111.88231    462.00205  -0.09411997    2.4027187   -49.929204   -65.399789    1.7524516   -49.900805  -0.33563854    2.1498782   -39.752031   -65.271271    1.9410557   -39.695067            0            0            0   -3.6485361    2.3320121   -159.73406 
  999700    129.56615    4129.9241     4302.701   -219.58165    461.49729  -0.10425966    2.3843675    -49.93299   -65.351333    1.7608685   -49.865659  -0.31109025    2.1199227   -39.764731   -65.278401    1.9295243   -39.660379            0            0            0   -3.6487982      2.33235   -159.73718 
  999800    129.56615    4299.2478    4277.7349    65.703033    461.11291 -0.051175306    2.3191406   -49.926445     -65.3518    1.7994561   -49.910562  -0.27761152    2.0875975   -39.802272   -65.250027    1.9748585   -39.731903            0            0            0   -3.6490604    2.3326878    -159.7403 
  999900    129.56615    4233.6519    4306.0156    28.180916    462.41823 -0.093375852     2.257267   -49.889634   -65.390242    1.7872555   -49.917288  -0.28437998    2.0227357   -39.674336   -65.262223    1.9074857   -39.697684            0            0            0   -3.6493225    2.3330257   -159.74341 
 1000000    129.56615     4068.814    4220.6212   -291.00522    462.84635  -0.10089456    2.1869771     -49.8517   -65.335917     1.825761    -49.90661  -0.33359725    1.9366269   -39.603427   -65.199868    1.9291547   -39.664916            0            0            0   -3.6495846    2.3333635   -159.74653 
 1000100    129.56615    4205.4861    4054.2088    -135.1499    460.85102  -0.12793698    2.2089069   -49.849235   -65.286201     1.812491   -49.886085  -0.39570113    1.9372986   -39.638843   -65.164664    1.9529889   -39.668902            0            0            0   -3.6498467    2.3337014   -159.74965 
 1000200    129.56615    4153.8411    4225.3729   -50.720262    461.91433 -0.097736382    2.1601963   -49.789922   -65.279352    1.8151444   -49.926078  -0.40013713    1.8564866   -39.554406   -65.149082    2.0308063   -39.702012            0            0            0   -3.6501088    2.3340392   -159.75276 
 1000300    129.56615    4042.6959      4191.95   -191.55548    462.36704 -0.058982677    2.1398907   -49.788763   -65.237063    1.8885822   -49.906579   -0.3566824     1.884804   -39.580717    -65.10494    2.1569642   -39.732634            0            0            0    -3.650371    2.3343771   -159.75588 
 1000400    129.56615    3987.4594     4069.369   -237.85882    461.12235 -0.030819378    2.1545048    -49.74273   -65.269116    1.8638322   -49.871218  -0.27960894     1.886893   -39.539507   -65.055797    2.0871185   -39.671722            0            0            0   -3.6506331    2.3347149     -159.759 
 1000500    129.56615    3924.4132    3938.8414   -369.27978    463.46082 -0.0045571126     2.148616   -49.729434   -65.230969     1.810811   -49.892218  -0.21504288    1.8553952   -39.532019   -65.015748    1.9669799   -39.718341            0            0            0   -3.6508952    2.3350528   -159.76211 
 1000600    129.56615    4028.6956    3956.2402   -455.68642    461.96603  0.057786897    2.1646919   -49.772268    -65.16863    1.8309313   -49.952603  -0.12350291    1.8471077   -39.558779    -64.98919    2.0209881   -39.799915            0            0            0   -3.6511573    2.3353906   -159.76523 
 1000700    129.56615     4161.049    4096.8599   -448.09862    460.91844   0.11582886     2.155301   -49.763091   -65.168249    1.8211068   -49.973909 -0.043916926    1.8732255   -39.514538   -65.005469     1.982918   -39.786705            0            0            0   -3.6514195    2.3357285   -159.76834 
 1000800    129.56615    4321.2246    4232.7728    2.1452853    461.15192   0.17108493    2.2532703   -49.811582   -65.140361    1.7830907   -50.004282 0.0060345891    2.0110533   -39.554758    -64.96031     1.940748    -39.82407            0            0            0   -3.6516816    2.3360663   -159.77146 
 1000900    129.56615    4381.4595    4339.9266    70.487768    462.63619   0.15315921    2.3109127   -49.858819   -65.139764     1.792089   -50.049244 -0.0075433201    2.0645285   -39.624211   -64.921479    1.8985865   -39.899925            0            0            0   -3.6519437    2.3364042   -159.77458 
 1001000    129.56615      4380.73    4478.9675    212.14665    462.53335   0.13176644    2.3264156   -49.929736   -65.160838    1.7986054   -50.044225  -0.06074463    2.1081274   -39.731277   -64.885108    1.8908552   -39.838942            0            0            0   -3.6522058     2.336742   -159.77769 
 1001100    129.56615    4471.6115    4461.8117    241.97042    462.82053   0.18599132    2.3795389   -49.953842   -65.154699    1.7801879   -50.025386 -0.027021204    2.1828503   -39.790017   -64.866151    1.9924686   -39.802368            0            0            0    -3.652468    2.3370799   -159.78081 
 1001200    129.56615    4395.6647    4520.8836    326.67143     461.5729   0.19108168     2.405743   -49.933343   -65.133872    1.7243742   -50.040926 -0.059727859    2.2269181   -39.758442   -64.840269     1.935417    -39.80769            0            0            0   -3.6527301    2.3374177   -159.78393 
 1001300    129.56615    4597.1936    4501.3507    423.73507    462.48757   0.21954028    2.4432899   -49.915806   -65.066202    1.7604475   -49.990536  0.015038333    2.2110992   -39.782486   -64.832996    1.9767824   -39.831194            0            0            0   -3.6529922    2.3377556   -159.78704 
 1001400    129.56615    4278.4695    4344.9512    161.41405    461.44533   0.17785817    2.4640059   -49.981903   -65.031001    1.7600532    -50.00667 -0.0098295422    2.2123678   -39.862866   -64.849868    2.0282748   -39.821045            0            0            0   -3.6532543    2.3380934   -159.79016 
 1001500    129.56615    4220.2536    4228.9348   -57.364774     460.5959   0.17042311     2.414476   -49.938949   -65.064163    1.8124204    -50.00724 -0.023216822    2.1512933   -39.765172   -64.888748    1.9897976    -39.79747            0            0            0   -3.6535165    2.3384313   -159.79328 
 1001600    129.56615    4303.5208    4212.5103   0.77452836    459.52017   0.19814477    2.4415159    -49.89708   -65.009484    1.8188272   -49.938881 0.0076592341    2.2155758   -39.690112   -64.874142    2.0001846   -39.711863            0            0            0   -3.6537786    2.3387691   -159.79639 
 1001700    129.56615    4189.9732    4314.2008   -64.753316    461.55538   0.22394752    2.4219505   -49.936828   -65.031355    1.9068959   -49.923721  0.043733207    2.2237438   -39.731076   -64.882094    2.0761915   -39.730185            0            0            0   -3.6540407     2.339107   -159.79951 
 1001800    129.56615     4202.973    4250.2094   -68.824427    461.03757   0.20282145    2.3973392   -49.953425   -65.049564     1.979643   -49.919839  0.015390733     2.214058   -39.762735   -64.886864     2.153886   -39.701356            0            0            0   -3.6543028    2.3394448   -159.80263 
 1001900    129.56615    4194.8064    4276.3089    23.472592    461.85958   0.14748237     2.362074   -49.944036   -65.110336    1.9813679   -49.930782 -0.078127831    2.2267138   -39.766184   -64.939765    2.1732535   -39.721005            0            0            0    -3.654565    2.3397827   -159.80574 
 1002000    129.56615    4323.2197    4339.8437    36.613486    459.26597   0.14891748    2.3569587   -49.913749    -65.10184    1.9765388   -49.951963  -0.06026356    2.1235217   -39.671697   -64.921355    2.2346617   -39.751497            0            0            0   -3.6548271    2.3401205   -159.80886 
 1002100    129.56615    4343.8339    4196.6467    46.165334    462.92669   0.14990161    2.3691018   -49.933118   -65.114247    2.0027801     -50.0033 -0.096176443    2.0621105   -39.691658   -64.952734    2.2204577   -39.851731            0            0            0   -3.6550892    2.3404584   -159.81198 
 1002200    129.56615    4478.2914    4267.3501    266.48984    462.80922   0.13758299    2.4111526    -49.94799   -65.085543    2.0372683   -49.997066 -0.044390404    2.0842038   -39.717547   -64.882492    2.1904165   -39.860557            0            0            0   -3.6553513    2.3407962   -159.81509 
 1002300    129.56615    4366.1747    4207.8561    159.89521    463.83084   0.11946033    2.4047199   -49.974644   -65.101639    2.0115829   -50.037261 -0.022256874    2.1042692   -39.710659   -64.869224    2.1660236    -39.90314            0            0            0   -3.6556134    2.3411341   -159.81821 
 1002400    129.56615     4356.857    4386.9994    38.318321     459.3903    0.1172332    2.3867233   -49.947208   -65.201861    2.0343271   -50.074438 -0.017949994    2.1203842   -39.733906   -64.989124    2.2105049   -39.873203            0            0            0   -3.6558756    2.3414719   -159.82132 
 1002500    129.56615    4398.1418    4424.9709    48.392444    462.00837   0.09745306    2.3922462   -49.963938   -65.199781    1.9908048    -50.10984 -0.038693275    2.1229198   -39.771598   -65.046564    2.1551183   -39.906631            0            0            0   -3.6561377    2.3418098   -159.82444 
 1002600    129.56615    4521.3278    4463.2882    215.96023    459.51231  0.081955712    2.4264423   -49.945519   -65.150943    1.9784699   -50.072576 -0.096473228    2.1807204   -39.797553    -65.00249    2.1809396   -39.888288            0            0            0   -3.6563998    2.3421476   -159.82756 
 1002700    129.56615    4310.1844    4438.1789    289.20077    463.63243   0.11014863    2.4754135   -49.892687   -65.181305    1.9895475   -50.020728 -0.082327751    2.2805583   -39.762575    -65.01672    2.1754998   -39.859123            0            0            0   -3.6566619    2.3424855   -159.83067 
 1002800    129.56615    4548.2044    4643.4003    491.05817    460.49451  0.082506789    2.5101098   -49.949367   -65.203479    2.0099368   -50.016815  -0.17963016    2.3417523   -39.713396   -65.024345    2.1717535   -39.833662            0            0            0   -3.6569241    2.3428233   -159.83379 
 1002900    129.56615    4478.5889    4270.5003    308.68877    459.79391  0.048821496    2.5302819    -49.92764   -65.219778    1.9849987   -50.023834  -0.23837265     2.315327   -39.726453   -65.058521    2.1290492   -39.851601            0            0            0   -3.6571862    2.3431612   -159.83691 
 1003000    129.56615    4306.2446    4295.8415   -50.519908    459.16117  0.015672269    2.5337597   -49.971199   -65.249786    1.9943584   -50.050045  -0.27945982    2.3237466    -39.74406   -65.074832    2.1214526   -39.826835            0            0            0   -3.6574483     2.343499   -159.84002 
 1003100    129.56615    4133.1802    4183.3184   -165.71534     459.1223  0.040042177     2.593216    -49.88006   -65.220513    2.0354477   -50.097779  -0.22859319    2.3354251   -39.658482   -65.025892    2.2079618   -39.856594            0            0            0   -3.6577104    2.3438369   -159.84314 
 1003200    129.56615    4103.9657    4092.7934   -380.73103    459.98567  0.049099214    2.5739861   -49.903403   -65.223344    2.0498496   -50.014745  -0.20027138    2.3387506   -39.675848    -65.05089    2.2507443   -39.745814            0            0            0   -3.6579726    2.3441747   -159.84626 
 1003300    129.56615    4117.2073    4072.5963   -340.21392    461.10712 0.0095983644    2.5676735   -49.946426   -65.235293    2.0998314   -50.069698  -0.26572138    2.3732282   -39.749897    -65.08583    2.2735944   -39.849745            0            0            0   -3.6582347    2.3445126   -159.84937 
 1003400    129.56615    4115.2946    4033.6538   -499.98739    461.33829  0.050465339    2.5482815   -49.941828   -65.240072    2.0191092   -50.073834  -0.20485795    2.3455106   -39.709645   -65.062352    2.2618135   -39.894034            0            0            0   -3.6584968    2.3448504   -159.85249 
 1003500    129.56615    4114.1946     3983.737   -417.36002    461.97943  0.036754234    2.5406155   -49.955107   -65.293449     2.030521   -50.030546  -0.24236516    2.3124128   -39.724412   -65.113714    2.3043796   -39.892709            0            0            0   -3.6587589    2.3451883   -159.85561 
 1003600    129.56615    4097.5966    4176.6164   -260.85088      463.373  0.061790118    2.5075566    -49.97692   -65.282441    2.0696989   -50.092973  -0.15088872     2.244685   -39.783464   -65.098477    2.3078747   -39.918024            0            0            0   -3.6590211    2.3455261   -159.85872 
 1003700    129.56615    4289.0603    4406.3326    210.62135    461.69982  0.067450929    2.5512391   -49.967801   -65.204762     2.095721   -50.086689  -0.12364428    2.2748757   -39.780047   -65.004466     2.310075   -39.943528            0            0            0   -3.6592832     2.345864   -159.86184 
 1003800    129.56615    4387.5197    4335.0833    96.235974    459.31618  0.053974011    2.5812554   -49.908606   -65.204917    2.1298413   -50.092376 -0.084353563    2.2990485    -39.74461   -65.024442    2.3365109   -39.956703            0            0            0   -3.6595453    2.3462018   -159.86496 
 1003900    129.56615    4204.4295    4240.5528    -54.60662     461.3326  0.027612243    2.5884259   -49.930803   -65.181032    2.0862565   -50.064599  -0.14400972     2.370287   -39.722688   -64.987524     2.250448   -39.820455            0            0            0   -3.6598074    2.3465397   -159.86807 
 1004000    129.56615    4253.5316    4293.5939   -133.95234    462.51272 0.0085133711    2.5805787   -49.948613   -65.174959    2.1189673   -50.036601  -0.16596463    2.3417643   -39.757609   -65.010515    2.2732502   -39.787324            0            0            0   -3.6600695    2.3468775   -159.87119 
 1004100    129.56615    4318.3933    4249.2052    269.17406      460.302   0.04031696     2.567115   -49.983516   -65.137722    2.0811445   -50.025682  -0.17279089    2.3644816   -39.778232   -64.967118    2.2384981   -39.821488            0            0            0   -3.6603317    2.3472154    -159.8743 
 1004200    129.56615    4377.5564    4306.9906    89.383127    461.16232 -0.0077407635    2.5653565     -50.0075   -65.159094    2.0548894   -50.068088   -0.2350034    2.3671423   -39.822281   -65.011811    2.2712936   -39.839406            0            0            0   -3.6605938    2.3475532   -159.87742 
 1004300    129.56615    4218.2499    4070.5611    19.826818    461.67136 -0.030824938    2.5385427   -49.978314   -65.178771    1.9876902   -50.067519  -0.21793213     2.343719   -39.781557   -64.961536    2.2148861   -39.818962            0            0            0   -3.6608559    2.3478911   -159.88054 
 1004400    129.56615    4129.6342    4101.4766   -287.63558    460.71312  0.011680653    2.4624279   -49.973228   -65.205372    2.0052732   -50.100798  -0.18577838    2.2628658   -39.744419   -64.998054    2.2066259   -39.932287            0            0            0    -3.661118    2.3482289   -159.88365 
 1004500    129.56615    4206.2563    4152.3086   -110.47299    459.59546 0.0017098358    2.4919237   -49.997353   -65.219769    2.0171793   -50.071184  -0.24403739    2.2920925   -39.783207   -65.039338    2.1716357   -39.894439            0            0            0   -3.6613802    2.3485668   -159.88677 
 1004600    129.56615     4222.789    4088.7778   -85.891787    461.82629  0.070598086    2.4703414    -49.99033   -65.186499    1.9988091    -50.07856  -0.22941189    2.2380584   -39.784767   -64.995432    2.1048751    -39.90932            0            0            0   -3.6616423    2.3489046   -159.88989 
 1004700    129.56615    4155.6323    4162.4236   -331.11577    458.68684   0.09381103    2.5040577   -49.984717   -65.245511    2.0170121   -50.092148  -0.18235907    2.2142939   -39.771695   -65.099006    2.2021893   -39.940294            0            0            0   -3.6619044    2.3492425     -159.893 
 1004800    129.56615    4066.2987    4010.5309   -384.19244    462.19562   0.09202247    2.5309422   -49.995167    -65.29697    2.0709024   -50.058046  -0.15277233    2.3172479    -39.78235    -65.16447    2.2587718   -39.867622            0            0            0   -3.6621665    2.3495803   -159.89612 
 1004900    129.56615    4051.6141    4139.4851   -397.14176    460.47321  0.063267708    2.4611844   -49.948235   -65.300787    2.0828341   -49.989197  -0.15622802    2.1818434   -39.755669   -65.144491    2.2770151   -39.793297            0            0            0   -3.6624287    2.3499182   -159.89924 
 1005000    129.56615    3940.1752    3885.2906   -402.00752    460.37093   0.03483809    2.5236046   -49.954086   -65.302027    2.0890595     -50.0131   -0.1997468    2.2669902   -39.748975   -65.129643    2.2781609   -39.774383            0            0            0   -3.6626908     2.350256   -159.90235 
Loop time of 16954.6 on 15 procs for 1000000 steps with 33024 atoms

Pair  time (%) = 11493.1 (67.7875)
Neigh time (%) = 221.78 (1.30808)
Comm  time (%) = 4143.69 (24.4399)
Outpt time (%) = 70.462 (0.415592)
Other time (%) = 1025.58 (6.04897)

Nlocal:    2201.6 ave 2719 max 606 min
Histogram: 3 0 0 0 0 0 0 0 3 9
Nghost:    5524.8 ave 6877 max 2332 min
Histogram: 3 0 0 0 0 0 3 0 0 9
Neighs:    154470 ave 193530 max 34163 min
Histogram: 3 0 0 0 0 0 0 0 3 9

Total # of neighbors = 2317054
Ave neighs/atom = 70.1627
Neighbor list builds = 25748
Dangerous builds = 0



