LAMMPS (16 Feb 2016)
# ------------------------ INITIALIZATION ----------------------------
echo both
#log		log.c
units           metal
dimension       3
boundary        p p p
atom_style      atomic
shell         mkdir  cfg
WARNING: Shell command 'mkdir' failed with error 'File exists' (../input.cpp:1126)
shell         mkdir  dump
WARNING: Shell command 'mkdir' failed with error 'File exists' (../input.cpp:1126)


# ----------------------- ATOM DEFINITION & Force Field -------------
lattice         fcc 3.615 #origin 0.0 0.0 0.0 orient x 1 -1 0 orient y 1 1 -2 orient z 1 1 1
Lattice spacing in x,y,z = 3.615 3.615 3.615
variable        Lx equal 65
variable        Ly equal 3
variable        Lz equal 260
variable        boxLZ equal 270
region          SYSTEM block -${Lx} ${Lx} -${Ly} ${Ly} -${Lz} 0 units lattice
region          SYSTEM block -65 ${Lx} -${Ly} ${Ly} -${Lz} 0 units lattice
region          SYSTEM block -65 65 -${Ly} ${Ly} -${Lz} 0 units lattice
region          SYSTEM block -65 65 -3 ${Ly} -${Lz} 0 units lattice
region          SYSTEM block -65 65 -3 3 -${Lz} 0 units lattice
region          SYSTEM block -65 65 -3 3 -260 0 units lattice
region          BOX block -${Lx} ${Lx} -${Ly} ${Ly} -${boxLZ} 5 units lattice
region          BOX block -65 ${Lx} -${Ly} ${Ly} -${boxLZ} 5 units lattice
region          BOX block -65 65 -${Ly} ${Ly} -${boxLZ} 5 units lattice
region          BOX block -65 65 -3 ${Ly} -${boxLZ} 5 units lattice
region          BOX block -65 65 -3 3 -${boxLZ} 5 units lattice
region          BOX block -65 65 -3 3 -270 5 units lattice
create_box      1 BOX
Created orthogonal box = (-234.975 -10.845 -976.05) to (234.975 10.845 18.075)
  16 by 1 by 32 MPI processor grid
create_atoms    1 region SYSTEM
Created 812760 atoms

delete_atoms     porosity BOX 0.005 21417
Deleted 4054 atoms, new total = 808706

#---------------------------------------------------------------------


pair_style      eam/alloy
pair_coeff  	  * * Cu01.eam.alloy Cu

#----------------------------------------------------------------------
velocity       all create 300.0 1403 mom yes rot yes dist gaussian
fix             1 all npt temp 300 300 0.1 iso 0.0 0.0 2
run      10000
Neighbor list info ...
  1 neighbor list requests
  update every 1 steps, delay 10 steps, check yes
  max neighbors/atom: 2000, page size: 100000
  master list distance cutoff = 7.50679
  ghost atom cutoff = 7.50679
  binsize = 3.75339 -> bins = 126 6 265
Memory usage per processor = 2.15768 Mbytes
Step Temp E_pair E_mol TotEng Press Volume 
       0          300   -2855808.9            0   -2824448.9    1469.4424     10133330 
   10000    299.88713   -2824009.4            0   -2792661.2     9.698441     10254652 
Loop time of 126.049 on 512 procs for 10000 steps with 808706 atoms

Performance: 6.854 ns/day, 3.501 hours/ns, 79.334 timesteps/s
99.9% CPU use with 512 MPI tasks x no OpenMP threads

MPI task timing breakdown:
Section |  min time  |  avg time  |  max time  |%varavg| %total
---------------------------------------------------------------
Pair    | 35.148     | 81.274     | 89.768     | 110.3 | 64.48
Neigh   | 0.00065231 | 0.21888    | 0.25171    |  10.3 |  0.17
Comm    | 2.7911     | 12.178     | 36.034     | 132.8 |  9.66
Output  | 0.000808   | 0.0008211  | 0.00084186 |   0.0 |  0.00
Modify  | 25.108     | 31.196     | 86.287     | 180.0 | 24.75
Other   |            | 1.182      |            |       |  0.94

Nlocal:    1579.5 ave 1808 max 0 min
Histogram: 16 0 0 0 16 0 0 9 149 322
Nghost:    4580.94 ave 5132 max 499 min
Histogram: 16 0 0 13 3 0 16 0 102 362
Neighs:    110843 ave 127268 max 0 min
Histogram: 16 0 0 16 0 0 0 9 120 351

Total # of neighbors = 56751851
Ave neighs/atom = 70.1761
Neighbor list builds = 36
Dangerous builds = 0
unfix 1

fix            2 all nvt temp 300.0 300.0 0.1

run      10000
Memory usage per processor = 2.15768 Mbytes
Step Temp E_pair E_mol TotEng Press 
   10000    299.88713   -2824009.4            0   -2792661.2     9.698441 
   20000    299.83339   -2823907.5            0   -2792564.9   -530.87381 
Loop time of 125.745 on 512 procs for 10000 steps with 808706 atoms

Performance: 6.871 ns/day, 3.493 hours/ns, 79.526 timesteps/s
99.9% CPU use with 512 MPI tasks x no OpenMP threads

MPI task timing breakdown:
Section |  min time  |  avg time  |  max time  |%varavg| %total
---------------------------------------------------------------
Pair    | 34.735     | 80.485     | 88.731     | 109.2 | 64.01
Neigh   | 0.00036526 | 0.12141    | 0.14248    |   7.7 |  0.10
Comm    | 2.7217     | 12.115     | 36.794     | 135.4 |  9.63
Output  | 0.000211   | 0.00022043 | 0.000247   |   0.0 |  0.00
Modify  | 21.798     | 27.838     | 82.436     | 188.5 | 22.14
Other   |            | 5.186      |            |       |  4.12

Nlocal:    1579.5 ave 1807 max 0 min
Histogram: 16 0 0 0 16 0 0 8 136 336
Nghost:    4585.63 ave 5112 max 498 min
Histogram: 16 0 0 12 4 0 16 0 63 401
Neighs:    110818 ave 128479 max 0 min
Histogram: 16 0 0 16 0 0 0 12 196 272

Total # of neighbors = 56739067
Ave neighs/atom = 70.1603
Neighbor list builds = 20
Dangerous builds = 0
reset_timestep 0
unfix    2
#---------------------- DEFINE Laser GERION and GROUP ----------------
region       R1  block -75  75  INF  INF  INF  5  units box
group        G1 region R1
258189 atoms in group G1
group        G2 subtract all G1
550517 atoms in group G2


#define     temperature/pressure calculation  group
variable    x1atom atom "x>=0  &&  x<4 &&  z>-40 && z<1"     ##NEW!!!!!!!!!!!!
variable    x2atom atom "x>=-234.98  &&  x<-230.98 &&  z>-40 && z<1"
variable    x3atom atom "x>=0  &&  x<4 &&  z>-20 && z<1"
variable    x4atom atom "x>=-234.98  &&  x<-230.98 &&  z>-20 && z<1"
variable    x5atom atom "x>=196  &&  x<200 &&  z>-40 && z<1"

group       x1atom variable x1atom
295 atoms in group x1atom
group       x2atom variable x2atom
274 atoms in group x2atom
group       x3atom variable x3atom
155 atoms in group x3atom
group       x4atom variable x4atom
143 atoms in group x4atom
group       x5atom variable x5atom
363 atoms in group x5atom


compute      COM1x x1atom com
compute      COM2x x2atom com
compute      COM3x x3atom com
compute      COM4x x4atom com
compute      COM5x x5atom com

compute      COMall all com

#Temperature profile
#variable      Tprofile atom 300*(1+(step/5000)*2.5*exp(z/40))
#variable tmp equal "lz"
#variable L0 equal ${tmp}
variable      Tprofile atom  300+600*(step/5000)*exp(z/40)*exp(-x*x/1289)


# ------------------------- SETTINGS ---------------------------------
thermo          100
thermo_style    custom step lx pxx pyy pzz temp c_COM1x[1] c_COM1x[2] c_COM1x[3] c_COM2x[1] c_COM2x[2] c_COM2x[3] c_COM3x[1] c_COM3x[2] c_COM3x[3] c_COM4x[1] c_COM4x[2] c_COM4x[3]  c_COM5x[1] c_COM5x[2] c_COM5x[3] c_COMall[1] c_COMall[2] c_COMall[3]

timestep       0.002


compute dispall all displace/atom
# ---------------- Run Laser Material Interaction --------------------
#dump          1 all custom 1000 dump/z1dump.atom id type x y z c_dispall[1]  c_dispall[2]  c_dispall[3] c_dispall[4]
#dump          2 all cfg 100 cfg/*.cfg mass type xs ys zs
#dump_modify   2 element Al

#relax for 2 PS
#fix           1 all nvt temp 300.0 300.0 0.1
#run  1000
#unfix         1

fix           1  all nve
fix           3temp  all  langevin  v_Tprofile  0  0.1  378411   #TEST ALL
run           5000
Memory usage per processor = 2.53268 Mbytes
Step Lx Pxx Pyy Pzz Temp COM1x[1] COM1x[2] COM1x[3] COM2x[1] COM2x[2] COM2x[3] COM3x[1] COM3x[2] COM3x[3] COM4x[1] COM4x[2] COM4x[3] COM5x[1] COM5x[2] COM5x[3] COMall[1 COMall[2 COMall[3 
       0    471.81806   -518.39527   -488.44837    -585.7778    299.83339    2.4530583   -0.7662183   -19.504862   -233.11758  -0.87410524   -19.547528     2.460284  -0.74013504   -9.8044048   -233.12367  -0.86512429   -9.5268236    198.10046   -1.1305308   -18.522448  -0.90612621  -0.90793033   -469.96477 
     100    471.81806   -508.43296   -485.06333   -552.99721    299.59302    2.4495506  -0.77151541    -19.51245   -233.10931  -0.84456626   -19.530306    2.4512078  -0.73925474   -9.7988406   -233.13676  -0.83588781   -9.5131617    198.09455   -1.1274771   -18.519402  -0.90618543  -0.90739705   -469.96553 
     200    471.81806   -507.57986   -499.36783   -597.23681    299.95458    2.4523654  -0.77005737   -19.486692   -233.11202  -0.83879544    -19.55094    2.4451891  -0.74421426   -9.7589381   -233.12346  -0.81956087   -9.5150653    198.08851   -1.1418838   -18.531975  -0.90667754  -0.90710017   -469.96594 
     300    471.81806   -486.11384   -472.14391   -561.98415    299.89582    2.4374103  -0.77808025   -19.496981    -233.1255  -0.85617914   -19.525747    2.4379372  -0.75751565   -9.7632591   -233.13949  -0.84130225   -9.4812991    198.09908   -1.1444814   -18.526132  -0.90682492  -0.90708536   -469.96616 
     400    471.81806   -490.62414   -456.57284    -552.1745    299.80944    2.4482479  -0.76201174   -19.496886   -233.12307  -0.86397431   -19.530236    2.4521375  -0.72756392   -9.7610845   -233.13751  -0.84449677    -9.522801    198.10748   -1.1478673   -18.516817  -0.90688354  -0.90664284   -469.96663 
     500    471.81806   -461.63601   -463.74105    -532.9989    299.74058    2.4390277  -0.73694994   -19.477745    -233.1224  -0.85110303   -19.523092    2.4435644  -0.68359293   -9.7224611   -233.13035   -0.8183851   -9.5121895    198.10988   -1.1631168   -18.536175  -0.90719793  -0.90664381   -469.96645 
     600    471.81806   -495.77581   -500.32371   -553.56375    300.65443     2.437823  -0.75009453   -19.477735   -233.11549  -0.86596011   -19.543656    2.4555761  -0.71581397   -9.7594956   -233.12263  -0.83706405    -9.522349    198.09761   -1.1525284   -18.553585  -0.90654646  -0.90673086   -469.96604 
     700    471.81806   -437.14824   -443.55289   -507.90857    300.89622    2.4387547  -0.76088809   -19.469637    -233.1264  -0.87233407   -19.542303    2.4537822  -0.71144005   -9.7678859   -233.13201  -0.84681439   -9.5291845    198.09881     -1.14933   -18.532042  -0.90641728  -0.90607627   -469.96571 
     800    471.81806   -421.77956   -403.11935   -530.39972    300.79443    2.4497993  -0.77704741   -19.452176   -233.10159  -0.87365517   -19.530154    2.4683055  -0.74912305   -9.7563574   -233.09275    -0.845913   -9.5086281    198.09156    -1.151413    -18.52205  -0.90691283  -0.90546865   -469.96524 
     900    471.81806   -519.26713   -478.19747   -598.14197    300.36977    2.4470463   -0.7729197   -19.464754   -233.09046  -0.88862765   -19.521556    2.4378326  -0.73799746   -9.7586901   -233.09157  -0.87863846   -9.5045832    198.09596   -1.1414311   -18.524071  -0.90691244  -0.90552486   -469.96471 
    1000    471.81806   -525.11439    -516.6775   -550.74895    300.38343    2.4390559  -0.76695234   -19.464056   -233.10027  -0.86043181   -19.504201    2.4062975  -0.72618445   -9.7466489   -233.09541  -0.85626045   -9.4862061    198.10853   -1.1550954   -18.529563  -0.90660225  -0.90565567   -469.96502 
    1100    471.81806   -454.45292   -479.51619   -533.67623     300.4635    2.4380955  -0.77324302   -19.469508   -233.09411  -0.86465925   -19.494593     2.396695  -0.73984932   -9.7474904   -233.09478  -0.85805238   -9.4595711    198.10994   -1.1356153   -18.530215  -0.90672806  -0.90529763   -469.96484 
    1200    471.81806   -484.59864   -476.29305   -529.89012    301.13712    2.4414982  -0.77931921   -19.479154   -233.10351   -0.8659258   -19.499828    2.4225905  -0.74800578   -9.7766486   -233.09704  -0.86328505   -9.4666224    198.12365   -1.1339049   -18.525485  -0.90658669   -0.9054839   -469.96459 
    1300    471.81806   -489.70741   -432.82723   -519.27311    301.10133    2.4205629  -0.77405561   -19.488063   -233.10434  -0.87003676   -19.505155     2.414947  -0.72322026   -9.7867373   -233.09856  -0.86296228   -9.4639551    198.12675   -1.1130605   -18.527888  -0.90605897  -0.90531931   -469.96406 
    1400    471.81806   -456.12576   -451.93965   -521.98456    300.86678    2.4220963  -0.76313327   -19.487849   -233.10721  -0.89450576    -19.52952    2.4209409  -0.73240275   -9.7919924   -233.07397  -0.87341547   -9.4669094    198.12672    -1.123434   -18.546251  -0.90598837  -0.90479431   -469.96338 
    1500    471.81806   -477.55088   -441.61417    -532.7799     301.2035    2.4263789  -0.76710495   -19.456157   -233.09856  -0.88154157   -19.518526    2.4127438  -0.72897114    -9.735166   -233.06206  -0.85642848   -9.4681715    198.11927   -1.1046001   -18.557674  -0.90629291  -0.90432802   -469.96309 
    1600    471.81806    -412.9468   -427.82994   -504.57134    301.33668    2.4250021  -0.76893505   -19.449923   -233.08776  -0.87261468   -19.546168    2.4149655  -0.74335462   -9.7435958   -233.06998  -0.86598293   -9.5130322    198.12516    -1.079106   -18.568605  -0.90690548  -0.90421308   -469.96286 
    1700    471.81806    -466.9029   -443.79114   -516.72084     301.9201    2.4503218    -0.763663   -19.467473   -233.11708  -0.87026533   -19.549476    2.4296937  -0.72086393   -9.7516987   -233.10261  -0.84631702   -9.5288579    198.10914   -1.0630279   -18.577622  -0.90746305   -0.9047464   -469.96254 
    1800    471.81806    -441.6089   -438.79959   -528.94237    301.63357    2.4466094  -0.77279062   -19.481954   -233.10739  -0.89489034   -19.534581    2.4419118  -0.76045182   -9.7845182   -233.09739  -0.88629269    -9.507705    198.11691    -1.089428   -18.575318  -0.90787081  -0.90458797   -469.96241 
    1900    471.81806   -417.25144   -393.18125   -489.15923    301.15472    2.4523812  -0.78305348   -19.488674   -233.09623  -0.87979108    -19.54386    2.4331272   -0.7825851   -9.7783369   -233.08534  -0.87139306   -9.5331335    198.11757   -1.0812312   -18.582396  -0.90770068  -0.90468736   -469.96295 
    2000    471.81806   -431.42538   -405.84473   -483.45559    301.86477    2.4367258  -0.77568316   -19.459873   -233.08886  -0.88072528   -19.552713    2.4148637  -0.76826725   -9.7649977   -233.07625  -0.87411626    -9.538758    198.11465   -1.0915425    -18.56882  -0.90796127  -0.90483266   -469.96289 
    2100    471.81806   -425.43109    -401.6051   -527.28113    301.46578    2.4514212  -0.76800539   -19.455742   -233.10073   -0.8883751   -19.545571    2.4376579  -0.75144659   -9.7658363   -233.09507  -0.86767482    -9.535874    198.12042   -1.1077755    -18.55969  -0.90839741  -0.90421509   -469.96337 
    2200    471.81806   -448.17209   -410.00671   -513.05271     301.2756    2.4577805  -0.76415314    -19.46497   -233.09841  -0.88616067   -19.539549    2.4692348  -0.75036218   -9.7543538   -233.07507  -0.86448652    -9.517904    198.12538   -1.1165741    -18.55969  -0.90886134  -0.90423615   -469.96371 
    2300    471.81806    -497.3524   -456.46704   -560.15241    301.88108     2.454474  -0.75676935   -19.431756   -233.12041  -0.89097207   -19.524257    2.4439483  -0.74470126   -9.7178681   -233.10341  -0.87075688   -9.4940942    198.10007   -1.1189854   -18.553556  -0.90874357  -0.90415348   -469.96352 
    2400    471.81806   -434.99616   -391.35425   -488.65824    301.95084     2.448148  -0.74950048   -19.444831   -233.10762  -0.87342169   -19.515147    2.4279943  -0.71742618    -9.734502   -233.09549  -0.86548672   -9.4933581    198.12643   -1.1090851   -18.542525  -0.90867167  -0.90452128   -469.96347 
    2500    471.81806   -403.31824    -430.2459   -556.53328     301.8021    2.4358893  -0.77933081   -19.463532   -233.10359   -0.8684852   -19.523382    2.4058109  -0.75552193   -9.7537747   -233.09175  -0.85598199   -9.5045401    198.14201   -1.0900141   -18.537394  -0.90851408  -0.90492867   -469.96323 
    2600    471.81806   -418.98101   -419.03745   -523.10566    301.84067    2.4459199  -0.75319568   -19.424425   -233.08817  -0.87650793   -19.537196    2.4324552  -0.69592633   -9.7099635   -233.07333  -0.87061526   -9.5144314     198.1383   -1.0942119   -18.546494  -0.90877508  -0.90530474   -469.96311 
    2700    471.81806   -439.02292     -434.746   -493.81918    301.99701    2.4335344   -0.7683363    -19.44724   -233.10346   -0.8804386   -19.536833    2.4354608  -0.73648556   -9.7310564   -233.08848  -0.89590107    -9.510451    198.13883   -1.0746336   -18.531871  -0.90901273  -0.90523168   -469.96353 
    2800    471.81806   -455.72957   -417.12618   -494.65728    302.09935    2.4352699  -0.78136338   -19.476037   -233.10776  -0.89223799   -19.518766    2.4319545  -0.75307554   -9.7439696    -233.1023  -0.89677104   -9.5139219     198.1208   -1.0788152   -18.543102  -0.90888492  -0.90615499   -469.96475 
    2900    471.81806   -421.15487   -421.55104    -527.0752    302.45592    2.4713884  -0.81837439   -19.481689   -233.11637  -0.88419831   -19.506454    2.4801689  -0.82131788   -9.7705034    -233.0946  -0.88794682   -9.5044952    198.13124   -1.0874393   -18.554016  -0.90853891  -0.90631217   -469.96488 
    3000    471.81806   -447.02143   -413.05822   -510.23272    302.20329    2.4746024  -0.80997916   -19.469551     -233.127  -0.89245727   -19.512328    2.4893423  -0.79144396   -9.7463251   -233.11502  -0.91337796   -9.4966482    198.15303   -1.0760049   -18.563219  -0.90828056  -0.90626822   -469.96476 
    3100    471.81806   -460.74237    -404.8978   -542.84297    301.92456    2.4675244  -0.82105347   -19.465751   -233.11847  -0.87534585   -19.519188    2.4758062  -0.79939152   -9.7213908   -233.10908  -0.89245395   -9.5011516    198.14443   -1.1110415   -18.561797  -0.90788559  -0.90636175   -469.96473 
    3200    471.81806   -410.88248   -444.88642   -541.40808    302.50929    2.4833372  -0.79256805   -19.455546   -233.10786  -0.90207923   -19.513617    2.5103123  -0.78661148   -9.7008883    -233.0962  -0.91161006   -9.4985031    198.12684   -1.1089333   -18.541157   -0.9074548  -0.90635669   -469.96468 
    3300    471.81806   -420.93413   -393.46302   -522.62407    302.73222    2.4711823  -0.76814757   -19.481795   -233.10328  -0.89820913   -19.538176     2.497814  -0.73106236    -9.716022   -233.08872  -0.90239401   -9.5351896    198.13728   -1.0981752   -18.537375  -0.90762179  -0.90682951   -469.96501 
    3400    471.81806   -420.36246   -418.13962   -483.35414    302.58966     2.479824  -0.77638282   -19.471956   -233.08609  -0.88187185   -19.523452    2.4952818  -0.73983512   -9.6892925   -233.07311  -0.88192036   -9.5193543    198.12865   -1.0959286    -18.53371   -0.9078739    -0.907181   -469.96497 
    3500    471.81806   -424.77723   -399.60445   -470.40275    302.55355    2.4460184  -0.78208491   -19.493397   -233.11572  -0.90331957   -19.529722    2.4737908  -0.77311727   -9.7019006   -233.10327   -0.9214892    -9.514728    198.11289   -1.0828105   -18.542208  -0.90804675   -0.9069715   -469.96532 
    3600    471.81806   -416.16968   -359.20808   -470.64111    303.18712     2.450235  -0.77327797   -19.465339   -233.11065  -0.89522524   -19.538084    2.4693516  -0.74443481   -9.6600708   -233.10349  -0.89148321   -9.5261737    198.12019   -1.0760574   -18.537776  -0.90815201  -0.90726065   -469.96608 
    3700    471.81806   -366.75452   -380.45823   -446.10337    302.73851    2.4573652   -0.7691184   -19.463412   -233.11363  -0.89245687   -19.533452    2.4676607  -0.76218125   -9.6778178   -233.10792  -0.89192865   -9.5191204    198.12334   -1.0933522   -18.541098  -0.90774474  -0.90753418    -469.9663 
    3800    471.81806   -336.43542   -352.24601   -438.48686    302.28982    2.4595517   -0.7414558   -19.464689   -233.09746  -0.88988784   -19.542574    2.4712692  -0.72884365   -9.6844631     -233.093  -0.86984867   -9.5221466    198.11263   -1.0837534   -18.522163  -0.90768352  -0.90792745   -469.96618 
    3900    471.81806   -371.22529   -362.65242   -439.97791    303.18524     2.441943  -0.73674904   -19.468527   -233.12408  -0.90092124    -19.54585    2.4660366  -0.71453879   -9.6864414   -233.12733    -0.881761   -9.5319236     198.1217   -1.0883425    -18.52875   -0.9078759  -0.90826392   -469.96619 
    4000    471.81806   -309.99675   -346.13317   -440.14282    302.99476    2.4506511  -0.73149027    -19.44125   -233.14327  -0.87771799   -19.548818    2.4722681  -0.73786723   -9.6459729   -233.14507  -0.87585556    -9.532551    198.11508    -1.084576   -18.531942  -0.90759864  -0.90874722   -469.96617 
    4100    471.81806   -323.84112   -326.31257   -392.45417    303.18923    2.4357905  -0.72626175   -19.430059   -233.12993  -0.90312614   -19.538869    2.4593423  -0.70469059   -9.6625053   -233.12842  -0.90593309   -9.5110373     198.1143   -1.0935568   -18.519082  -0.90756735  -0.90860777   -469.96557 
    4200    471.81806   -361.83982   -364.33328   -438.49846    303.15025    2.4810177  -0.71742439   -19.418934   -233.13785  -0.90814041   -19.563215    2.4917115  -0.67613973    -9.653211   -233.12935  -0.91728253    -9.544489    198.12498   -1.0822674   -18.517872  -0.90732851   -0.9086417   -469.96519 
    4300    471.81806   -314.33103   -308.32673   -394.20493    303.01323    2.5210678  -0.68855536   -19.437121   -233.16074  -0.92467568   -19.566468    2.5237948  -0.65624348   -9.6711585    -233.1644  -0.93332519   -9.5417097    198.13037   -1.0715156   -18.525652  -0.90704075   -0.9088141   -469.96564 
    4400    471.81806   -303.35321   -305.40445   -382.90682     303.6623    2.5147918  -0.69022525   -19.418985    -233.1538  -0.91490239   -19.544112    2.5087329  -0.68328065   -9.6707846   -233.15904  -0.93134604    -9.507981    198.10342    -1.063187   -18.537911  -0.90699164  -0.90879444   -469.96607 
    4500    471.81806   -317.95959   -333.84541   -405.31379    303.68801    2.5184714  -0.70735358    -19.40841   -233.14523  -0.91743262   -19.549657    2.5139433  -0.69420039   -9.6666272   -233.13615  -0.92687398   -9.5183941    198.11144   -1.0526484   -18.549566  -0.90718938  -0.90870208   -469.96664 
    4600    471.81806   -326.27608   -345.31284   -416.67001    303.22555    2.5026336  -0.68891864   -19.436374   -233.13336  -0.90522341   -19.542638    2.5009087  -0.68933476    -9.684903   -233.14467  -0.89321483   -9.5206179     198.1058   -1.0809574   -18.547329  -0.90745784  -0.90893534   -469.96674 
    4700    471.81806   -311.17928   -279.60364   -360.64455    303.49914    2.5289965  -0.72521956   -19.451763   -233.11939   -0.8941464   -19.533961     2.524773   -0.7453053   -9.6858421   -233.11308  -0.87746455   -9.5026009    198.10478   -1.0890133   -18.564577  -0.90706267  -0.90993963   -469.96745 
    4800    471.81806    -272.7253    -272.4413   -341.98274    303.66761    2.5295159  -0.76192757   -19.426833   -233.12397  -0.90590281   -19.532629    2.5225312  -0.75522894   -9.6531146   -233.12541  -0.89282147    -9.511676    198.11706   -1.0897826   -18.600368  -0.90731215  -0.91001629   -469.96818 
    4900    471.81806   -325.89517   -290.14341   -373.89893    303.31398     2.499121  -0.76803471   -19.424601   -233.13031   -0.8953579   -19.529699    2.5054174  -0.77947015   -9.6363796   -233.13057   -0.8576373   -9.5150013    198.12015   -1.1158181   -18.582913  -0.90742715  -0.90987257   -469.96834 
    5000    471.81806   -318.06331   -310.26245   -386.02467    303.42155    2.5143582  -0.78343856    -19.43244   -233.11973  -0.87166097   -19.533766    2.5139037  -0.83587323   -9.6289213   -233.13351  -0.85353814    -9.520132     198.1012   -1.1156611   -18.571725  -0.90715125  -0.90963143   -469.96831 
Loop time of 63.8959 on 512 procs for 5000 steps with 808706 atoms

Performance: 13.522 ns/day, 1.775 hours/ns, 78.252 timesteps/s
99.9% CPU use with 512 MPI tasks x no OpenMP threads

MPI task timing breakdown:
Section |  min time  |  avg time  |  max time  |%varavg| %total
---------------------------------------------------------------
Pair    | 17.683     | 40.694     | 44.783     |  77.2 | 63.69
Neigh   | 0.00035262 | 0.11573    | 0.13814    |   7.6 |  0.18
Comm    | 2.5772     | 6.4209     | 19.413     |  97.1 | 10.05
Output  | 0.17667    | 0.3156     | 0.63076    |  11.2 |  0.49
Modify  | 0.043736   | 2.7574     | 3.2383     |  34.0 |  4.32
Other   |            | 13.59      |            |       | 21.27

Nlocal:    1579.5 ave 1800 max 0 min
Histogram: 16 0 0 0 16 0 0 8 13 459
Nghost:    4584.66 ave 5120 max 499 min
Histogram: 16 0 0 14 2 0 16 0 82 382
Neighs:    110830 ave 127536 max 0 min
Histogram: 16 0 0 16 0 0 0 12 137 331

Total # of neighbors = 56744914
Ave neighs/atom = 70.1675
Neighbor list builds = 19
Dangerous builds = 0


variable  com1_x equal "c_COM1x[1]"
variable  com1_y equal "c_COM1x[2]"
variable  com1_z equal "c_COM1x[3]"
variable  com2_x equal "c_COM2x[1]"
variable  com2_y equal "c_COM2x[2]"
variable  com2_z equal "c_COM2x[3]"
variable  com3_x equal "c_COM3x[1]"
variable  com3_y equal "c_COM3x[2]"
variable  com3_z equal "c_COM3x[3]"
variable  com4_x equal "c_COM4x[1]"
variable  com4_y equal "c_COM4x[2]"
variable  com4_z equal "c_COM4x[3]"
variable  com5_x equal "c_COM5x[1]"
variable  com5_y equal "c_COM5x[2]"
variable  com5_z equal "c_COM5x[3]"
variable  comall_x equal "c_COMall[1]"
variable  comall_y equal "c_COMall[2]"
variable  comall_z equal "c_COMall[3]"


fix          2 all print 100 "${com1_x}   ${com1_y}   ${com1_z}  ${com2_x}   ${com2_y}   ${com2_z} ${com3_x}   ${com3_y}   ${com3_z} ${com4_x}   ${com4_y}   ${com4_z} ${com5_x}   ${com5_y}   ${com5_z} ${comall_x}   ${comall_y}   ${comall_z}" file COM.data screen no
#-------------------------- Wave Propagation -------------------------
unfix        3temp
run          1000000
Memory usage per processor = 2.53268 Mbytes
Step Lx Pxx Pyy Pzz Temp COM1x[1] COM1x[2] COM1x[3] COM2x[1] COM2x[2] COM2x[3] COM3x[1] COM3x[2] COM3x[3] COM4x[1] COM4x[2] COM4x[3] COM5x[1] COM5x[2] COM5x[3] COMall[1 COMall[2 COMall[3 
    5000    471.81806   -318.06331   -310.26245   -386.02467    303.42155    2.5143582  -0.78343856    -19.43244   -233.11973  -0.87166097   -19.533766    2.5139037  -0.83587323   -9.6289213   -233.13351  -0.85353814    -9.520132     198.1012   -1.1156611   -18.571725  -0.90715125  -0.90963143   -469.96831 
    5100    471.81806   -305.68482   -315.99605    -365.4238    303.88803    2.4767919  -0.76752292    -19.45915   -233.12875  -0.89641057    -19.54084     2.460649  -0.80826135   -9.6827273   -233.14952  -0.89393266   -9.5313109    198.11532   -1.0857559   -18.571691  -0.90625984  -0.90946106   -469.96814 
    5200    471.81806   -314.88242   -292.03802   -357.93568    303.63923    2.4696218  -0.77417344   -19.435429   -233.13856  -0.89021712   -19.537028    2.4441308  -0.79909069   -9.6444758    -233.1604  -0.89249212    -9.517166    198.12954   -1.0776604   -18.577257  -0.90536843  -0.90929068   -469.96797 
    5300    471.81806   -309.11267   -293.21803   -376.35426    303.34482    2.4986023  -0.75015074   -19.421563   -233.11862  -0.90183404   -19.565309    2.4968667  -0.76748597   -9.6324648   -233.14674  -0.87368118   -9.5561507    198.15155   -1.0651544   -18.590877  -0.90447703  -0.90912031    -469.9678 
    5400    471.81806   -287.96035    -289.7766   -367.85279    303.60122     2.474744   -0.7456611   -19.388127   -233.11123  -0.89778391    -19.56635    2.4780888  -0.72907146    -9.617278   -233.12057  -0.89693047   -9.5481053    198.14796   -1.0717947   -18.574558  -0.90358562  -0.90894994   -469.96764 
    5500    471.81806   -323.73901   -299.92255   -370.22311    303.29781     2.500105  -0.76319068   -19.381932   -233.10184  -0.90394396    -19.57941    2.5133538  -0.72830799   -9.5829609   -233.10971  -0.91777004   -9.5662546    198.13015   -1.0879049     -18.5655  -0.90269421  -0.90877956   -469.96747 
    5600    471.81806   -315.23947   -302.35493   -422.12812    303.52281     2.484317  -0.77426199   -19.374072   -233.08749  -0.90982239   -19.597152    2.4554256     -0.74346   -9.5732528   -233.07646  -0.89836059   -9.5975426    198.13043   -1.0924767   -18.582031  -0.90180281  -0.90860919    -469.9673 
    5700    471.81806   -302.85863   -302.05536   -367.30757    303.40688    2.4806699  -0.79186497   -19.368736   -233.09632  -0.89299067    -19.57887    2.4356701  -0.78616591   -9.5865932   -233.09169  -0.88588544   -9.5687811    198.11304   -1.0843668   -18.608003   -0.9009114  -0.90843881   -469.96713 
    5800    471.81806   -305.20216   -303.44705   -376.50841    303.40896    2.4965468  -0.81970762   -19.366084   -233.07511  -0.88494753   -19.575175    2.4535642  -0.80044912   -9.5695678   -233.07494  -0.88988337   -9.5616613    198.09807   -1.1112918   -18.625373  -0.90001999  -0.90826844   -469.96696 
    5900    471.81806   -293.58605   -278.72792   -375.28071     303.5877    2.4792329  -0.77388713   -19.337831   -233.06718  -0.88330733   -19.591336     2.465723  -0.75625266   -9.5261845    -233.0404  -0.89987179   -9.5860621    198.07607   -1.1220161   -18.648237  -0.89912859  -0.90809807   -469.96679 
    6000    471.81806   -290.51124   -292.20684    -351.4621    303.69388    2.5013633  -0.77648967   -19.296884   -233.07336  -0.86609534   -19.652626    2.4992633  -0.77330929   -9.4821035   -233.07244  -0.88113514   -9.6536802    198.06302   -1.1250155   -18.658917  -0.89823718  -0.90792769   -469.96662 
    6100    471.81806   -295.93507   -264.50143   -336.21222    303.89927    2.4814604  -0.78754641    -19.27821    -233.0842  -0.88213839   -19.646841    2.4890577  -0.78726678   -9.4989577   -233.07476  -0.89617279   -9.6372927    198.05868   -1.1245542   -18.679047  -0.89734577  -0.90775732   -469.96645 
    6200    471.81806   -219.77595   -211.39476   -285.49102    303.31705     2.491269  -0.77811493   -19.290594   -233.10601  -0.88328915   -19.649915    2.4851308  -0.80298263   -9.5327249   -233.09661  -0.87040705   -9.6443924    198.06555   -1.0837086   -18.692058  -0.89645437  -0.90758694   -469.96628 
    6300    471.81806   -195.10934   -180.98219   -247.03785    303.27715    2.5377448  -0.78704688   -19.271706   -233.13602  -0.88243729   -19.649728    2.5177684  -0.78567651   -9.5307789   -233.12759  -0.88646389   -9.6528512    198.07096   -1.0987095   -18.716767  -0.89556296  -0.90741657   -469.96611 
    6400    471.81806   -178.21031    -164.7459    -200.2474    303.39806     2.550764  -0.80325476   -19.254851   -233.13935  -0.88390477   -19.636143    2.5350279  -0.80654248    -9.492464   -233.14359  -0.87816171   -9.6118337    198.06597   -1.1053566   -18.738783  -0.89467155   -0.9072462   -469.96594 
    6500    471.81806   -143.53059   -155.48094   -193.03932    303.39844    2.5544957  -0.76731641   -19.229895   -233.14983  -0.88791129   -19.635377    2.5420996  -0.74325684   -9.4699294   -233.18067  -0.86672091   -9.6245264    198.05753   -1.1285828   -18.724953  -0.89378014  -0.90707582   -469.96577 
    6600    471.81806   -133.33876   -138.10755   -209.53303    303.37308    2.5625319  -0.78198919   -19.211925   -233.16978  -0.88538938   -19.617133    2.5627246  -0.73263028   -9.4681515   -233.19876  -0.86421967   -9.6098091    198.03691   -1.1351026    -18.71203  -0.89288874  -0.90690545    -469.9656 
    6700    471.81806   -188.76816    -168.2931   -234.22981    304.22806    2.5828757   -0.7886748   -19.223134   -233.18283    -0.885251    -19.62258     2.584346   -0.7593656   -9.4652901   -233.22865  -0.86831356   -9.6122519    198.04277   -1.1257949   -18.725336  -0.89199733  -0.90673508   -469.96544 
    6800    471.81806   -203.47857   -161.58247   -206.46553    303.75669    2.5681807  -0.80163251    -19.20091   -233.20188  -0.85212241    -19.63497    2.5840543  -0.78793012    -9.424147   -233.24454  -0.85710073   -9.6269041    198.04087    -1.116859    -18.72159  -0.89110592   -0.9065647   -469.96527 
    6900    471.81806   -206.09367   -178.66426   -213.96087    303.65388    2.5595706  -0.79228781   -19.215257   -233.23155  -0.84954396   -19.616522    2.5820776  -0.80354417   -9.4308664   -233.26407  -0.83151666   -9.6172093     198.0287    -1.101901    -18.71379  -0.89021452  -0.90639433    -469.9651 
    7000    471.81806    -222.1167    -197.2447   -258.85966      304.113    2.5652087  -0.79942426   -19.243353   -233.23667  -0.85096963   -19.596684    2.5914111  -0.82153126   -9.4849735   -233.25978  -0.84505168   -9.5746246    198.02116   -1.0969542   -18.704336  -0.88932311  -0.90622395   -469.96493 
    7100    471.81806   -160.97035   -188.48441    -256.7641    303.57858    2.5549389  -0.78861488   -19.245268   -233.24699  -0.84149004   -19.602078    2.5769886  -0.78807838    -9.503643   -233.26291    -0.820366   -9.5810273    198.01127   -1.0836689   -18.691671   -0.8884317  -0.90605358   -469.96476 
    7200    471.81806   -217.78704    -198.8608   -229.83074    303.62042    2.5734938  -0.75456149   -19.221794   -233.24666  -0.84080712   -19.588429    2.5979908  -0.73871919   -9.4808126   -233.25503  -0.83466848   -9.5760255    197.97849   -1.0774419   -18.661768   -0.8875403  -0.90588321   -469.96459 
    7300    471.81806   -223.44704   -183.69124   -256.92063    303.69845    2.5869182  -0.77778833   -19.250077   -233.25019  -0.83695698   -19.558022    2.5988748  -0.77766058   -9.5168087   -233.24622   -0.8291696   -9.5418407    197.95557   -1.0614449   -18.650782  -0.88664889  -0.90571283   -469.96442 
    7400    471.81806   -199.04104   -212.53653   -241.97037    303.98881    2.5634357  -0.75398433   -19.275756   -233.26139  -0.82367044   -19.537263    2.5728914  -0.74462578   -9.5546126    -233.2611  -0.81661644   -9.4971216    197.93909   -1.0575061   -18.634175  -0.88575748  -0.90554246   -469.96425 
    7500    471.81806   -174.02497   -180.11143   -189.90924      303.361    2.5630697  -0.75605675   -19.280638   -233.26537  -0.83635052   -19.542575    2.5813615  -0.75517475   -9.5559176   -233.25068  -0.83683434   -9.5045141     197.9455   -1.0580061   -18.609746  -0.88486608  -0.90537208   -469.96408 
    7600    471.81806   -177.42237   -170.02806    -223.7366    303.85047    2.5523979  -0.71979022   -19.311084    -233.2737  -0.82712041    -19.52414    2.5558108  -0.71261564   -9.5540692   -233.26637   -0.8430739    -9.505842     197.9633   -1.0686699   -18.619871  -0.88397467  -0.90520171   -469.96391 
    7700    471.81806   -181.75855   -175.78043   -186.75368    303.66369    2.5659356    -0.695863    -19.30864   -233.29059  -0.83714893   -19.521238    2.5590025  -0.68183979   -9.5406716   -233.26386  -0.82853811    -9.510717    197.94157   -1.0757261   -18.589653  -0.88308326  -0.90503134   -469.96374 
    7800    471.81806   -138.54075   -115.48803   -164.62349    303.09067    2.5454243  -0.70415102   -19.306911   -233.29502  -0.86761369   -19.536574    2.5293123  -0.68635251   -9.5626913   -233.25884  -0.84161322   -9.5378042    197.96373   -1.0462464    -18.58443  -0.88219186  -0.90486096   -469.96357 
    7900    471.81806   -120.38174   -114.26398   -181.16823    303.52485    2.5557867   -0.6953968   -19.327253   -233.28497  -0.86187245   -19.521513    2.5448743  -0.67813253    -9.580541    -233.2828  -0.86775261   -9.5084168    197.95432   -1.0506324   -18.636663  -0.88130045  -0.90469059   -469.96341 
    8000    471.81806   -110.02508   -110.82892   -136.51035    303.33773     2.544493  -0.70483435   -19.349213   -233.29228  -0.85446862    -19.52916    2.5262907  -0.69492587   -9.5757043    -233.2938  -0.81738111   -9.5111248    197.98198   -1.0262452   -18.660756  -0.88040904  -0.90452021   -469.96324 
    8100    471.81806   -132.71268   -122.73938   -146.78984    303.79059    2.5582201  -0.69625782   -19.347712   -233.28932  -0.85633266   -19.544666    2.5276146  -0.66569602   -9.6208598   -233.29994  -0.82079485   -9.5256587     197.9825   -1.0295352   -18.632942  -0.87951763  -0.90434984   -469.96307 
    8200    471.81806   -140.83222   -140.76852   -145.88287    304.08743    2.5706705  -0.71109478    -19.37388   -233.29929  -0.86349439   -19.545184    2.5430956   -0.6982521   -9.6629102   -233.31328  -0.83444464   -9.5340469    198.00254   -1.0539383   -18.616522  -0.87862623  -0.90417947    -469.9629 
    8300    471.81806   -122.27336   -90.866117   -110.06238    303.58139    2.5738384  -0.69872696   -19.381493   -233.29765  -0.88153257   -19.547402    2.5670781  -0.69958362   -9.6577333   -233.31659  -0.86606614   -9.5253325    197.99119   -1.0552539   -18.603943  -0.87773482  -0.90400909   -469.96273 
    8400    471.81806   -87.571186   -79.515542   -118.54464    303.61798    2.6196713   -0.7009104   -19.422218   -233.31086  -0.89960323   -19.562116     2.601808  -0.68395657   -9.6603037   -233.31905  -0.90945313   -9.5428923    198.01335   -1.0457264    -18.59718  -0.87684341  -0.90383872   -469.96256 
    8500    471.81806     -140.106   -103.08903   -148.25647    304.07097    2.6011766  -0.72680892   -19.442979   -233.29477  -0.86883749   -19.549705    2.6214491  -0.71468915   -9.6960685   -233.31957  -0.88374661    -9.490283    198.03051   -1.0373975   -18.598449  -0.87595201  -0.90366834   -469.96239 
    8600    471.81806   -87.163554   -56.522655    -82.03088    303.56208    2.5897665  -0.74310061   -19.455643   -233.27872  -0.86715255   -19.576821    2.5943912  -0.73041582   -9.7257421   -233.29551  -0.89341878   -9.5316047    198.04334   -1.0220506   -18.619439   -0.8750606  -0.90349797   -469.96222 
    8700    471.81806   -59.131873   -51.494581   -74.781452    303.46363    2.5867386  -0.73524979   -19.440442   -233.25388  -0.85194166   -19.606775    2.6307225  -0.73088888   -9.7006779   -233.28726  -0.87151523   -9.5660704    198.03546   -1.0315534    -18.63237  -0.87416919   -0.9033276   -469.96205 
    8800    471.81806   -15.390888     -44.9677    -38.70022    303.54521    2.6089681  -0.71959636   -19.430314   -233.23158  -0.84513203   -19.641986    2.6407258  -0.71796521   -9.6803191   -233.22827   -0.8530595   -9.6250457    198.02324   -1.0171485   -18.662085  -0.87327779  -0.90315722   -469.96188 
    8900    471.81806   -28.859565    1.8243012   -11.927035    303.93807    2.6028782  -0.73302179   -19.462921   -233.20963  -0.82615013   -19.673344      2.61734  -0.72665736    -9.713429   -233.20511  -0.82358567   -9.6585384    198.02188   -1.0175347   -18.675851  -0.87238638  -0.90298685   -469.96171 
    9000    471.81806   -42.424072   -45.626954   -18.556361    303.76809    2.6095198  -0.70644815   -19.462175   -233.19554  -0.82056372   -19.671502    2.6087775  -0.71105824   -9.7189526   -233.17526  -0.81131016   -9.6528253    198.02262   -1.0649505   -18.685902  -0.87149497  -0.90281648   -469.96154 
    9100    471.81806   -18.725587    6.1490882   -19.642686    303.85645    2.5727379   -0.7198751    -19.45326   -233.18164  -0.84495144   -19.675685    2.5447594  -0.69807735   -9.7230159   -233.15452  -0.83085575   -9.6179384    198.02799   -1.0763973   -18.699707  -0.87060357   -0.9026461   -469.96138 
    9200    471.81806   -6.6746275   -35.648134    7.0448545    303.82477    2.5798631  -0.71347329   -19.449345   -233.16958  -0.81859004   -19.715336    2.5431955  -0.70117961   -9.7474637   -233.13003   -0.7882142   -9.6738089    198.04265   -1.0970536   -18.733932  -0.86971216  -0.90247573   -469.96121 
    9300    471.81806    7.7184094    19.455047    52.984687    303.56232    2.5511399   -0.6847033   -19.441593   -233.15512  -0.79929601   -19.731073    2.5177206  -0.67095247   -9.7257864   -233.11478  -0.78133033   -9.6857964    198.05493   -1.0857041   -18.737873  -0.86882075  -0.90230535   -469.96104 
    9400    471.81806    12.093237    5.8954081     49.90092    304.09799    2.5294195  -0.71507747   -19.466143   -233.14769  -0.81705525   -19.714025    2.4945338  -0.71718882   -9.7408292   -233.11967   -0.8028143   -9.6886348    198.06724   -1.0788557   -18.755359  -0.86792935  -0.90213498   -469.96087 
    9500    471.81806    51.920928      42.8416    77.123363    303.87372    2.5211665  -0.70520372    -19.47523   -233.14863  -0.83673952   -19.722939    2.4863626  -0.70433394   -9.7185259   -233.13366  -0.81830817   -9.7071278    198.08057   -1.0494078   -18.761114  -0.86703794  -0.90196461    -469.9607 
    9600    471.81806    62.970711    61.792892    154.19215      303.791    2.4882723  -0.72861926   -19.449135   -233.16518  -0.86218053   -19.748737    2.4555343  -0.70973634   -9.7129852    -233.1704  -0.86859069   -9.7437163    198.09885   -1.0443703   -18.781898  -0.86614653  -0.90179423   -469.96053 
    9700    471.81806    65.144154    91.560472    144.80492    303.95518    2.4812005  -0.71896998   -19.471244   -233.17529  -0.87550619   -19.763865     2.450451  -0.69130617   -9.7319931   -233.17931  -0.88161991   -9.7562111    198.11331    -1.044974   -18.785725  -0.86525512  -0.90162386   -469.96036 
    9800    471.81806    71.283364    110.00662    142.82386    303.81858     2.472167  -0.71820154   -19.493639   -233.16813  -0.91337003   -19.789737    2.4342486  -0.69628695   -9.7438519   -233.17177  -0.91859346   -9.7593309    198.13313   -1.0635325   -18.792546  -0.86436372  -0.90145348   -469.96019 
    9900    471.81806    105.31402    51.568418    173.77647    303.90693    2.4548357  -0.72809326   -19.476794   -233.15429   -0.9527976   -19.806517    2.4283224  -0.72054806   -9.7538437   -233.17543  -0.98901012   -9.7921123    198.16959   -1.0481998    -18.79522  -0.86347231  -0.90128311   -469.96002 
   10000    471.81806    94.938138    94.470808     124.6622      303.974      2.49961  -0.72518058   -19.483517   -233.15692  -0.95198759   -19.810795    2.4839584  -0.75025964    -9.757989    -233.1656  -0.97168659   -9.7971015    198.18977    -1.036276   -18.814674   -0.8625809  -0.90111274   -469.95985 
   10100    471.81806    103.29211    108.20218    173.71261    303.75022    2.5254028  -0.71777642   -19.488373   -233.17012  -0.93034767    -19.83776    2.5256759  -0.72143897    -9.764404   -233.17541  -0.95038044   -9.8417376    198.17882   -1.0773367   -18.827281   -0.8616895  -0.90094236   -469.95968 
   10200    471.81806    89.988008    98.617141    160.97765    304.06032    2.5475631  -0.72157309    -19.50304   -233.17339  -0.91222492   -19.843176    2.5616292   -0.7320199    -9.776895   -233.17849  -0.91695794   -9.8337506    198.16434   -1.0976513   -18.820152  -0.86079809  -0.90077199   -469.95951 
   10300    471.81806    107.82613     136.8245    170.13231    303.63444    2.5435658  -0.73820591   -19.500014   -233.16621  -0.93136177   -19.841499    2.5425416  -0.73553114   -9.7370377   -233.13936  -0.90929919   -9.8233993    198.16984   -1.0927518   -18.841538  -0.85990668  -0.90060161   -469.95935 
   10400    471.81806     127.8833    110.69182    181.54832    304.33479    2.5180495  -0.74058929   -19.516415   -233.17334  -0.92101939   -19.854766    2.5188936  -0.73880248    -9.796786   -233.13662  -0.88426753   -9.8168483     198.1726   -1.0784069   -18.838072  -0.85901528  -0.90043124   -469.95918 
   10500    471.81806    131.48467    125.42764    183.57309    304.16672    2.5631447  -0.75341543    -19.52365   -233.15864  -0.89374437   -19.855049    2.5792124  -0.75430511   -9.8074762   -233.13703  -0.87493917    -9.806446     198.1468   -1.0797832   -18.825956  -0.85812387  -0.90026087   -469.95901 
   10600    471.81806    119.55798    139.90018    182.61672    303.84443    2.5971062  -0.74080435   -19.520952   -233.14943  -0.84839913   -19.857277    2.6426827  -0.73768135   -9.8067093   -233.13675  -0.83797307   -9.8009231    198.16615   -1.1072275   -18.807377  -0.85723246  -0.90009049   -469.95884 
   10700    471.81806    132.76014    133.87914    204.08401    303.86001    2.6057659  -0.72860796   -19.539877   -233.15707  -0.83811035   -19.838077    2.6410224  -0.71560067   -9.8145582   -233.14929  -0.83675263   -9.7904936    198.18347   -1.1251503   -18.812297  -0.85634106  -0.89992012   -469.95867 
   10800    471.81806    122.79086     139.4264    192.76486    303.99737    2.6449019  -0.72395536   -19.564802   -233.14498  -0.87085298   -19.824206    2.6804688  -0.72489614   -9.8600953   -233.13555  -0.87906581   -9.7704475    198.18339   -1.1282136   -18.794157  -0.85544965  -0.89974974    -469.9585 
   10900    471.81806    105.31548     155.0267    214.50648    303.89847    2.6228883  -0.72278928   -19.567357   -233.17597  -0.86424474   -19.806287    2.6601295  -0.70421764   -9.8424345   -233.14494  -0.85762776   -9.7402585     198.1794   -1.1078655   -18.780847  -0.85455824  -0.89957937   -469.95833 
   11000    471.81806    168.90839    170.28386    256.15801    303.47131    2.6112368  -0.74644563   -19.569898   -233.16907  -0.89125568   -19.807255    2.6395127  -0.70345868   -9.8460199   -233.14647   -0.8896875   -9.7658607    198.17708   -1.1066317   -18.799632  -0.85366684    -0.899409   -469.95816 
   11100    471.81806    156.83041    186.97568    234.88638    303.81511    2.6123282  -0.70564614   -19.576091   -233.14712  -0.86060534   -19.820767    2.6294839  -0.68768924   -9.8579377   -233.14365  -0.84161448   -9.7868836    198.16319   -1.0853957   -18.820903  -0.85277543  -0.89923862   -469.95799 
   11200    471.81806    169.37249    197.92103    234.78397    303.78274    2.5983311  -0.72673547   -19.564421   -233.16071  -0.81636638   -19.835371    2.6038845  -0.72125552   -9.8495652   -233.16641  -0.78631002   -9.8013709    198.15735   -1.0820208   -18.840198  -0.85188402  -0.89906825   -469.95782 
   11300    471.81806    181.18386    162.06568    248.57655    303.81162    2.5844401  -0.74250607   -19.566085   -233.14794  -0.82904889    -19.83913    2.6035352  -0.73881911   -9.8487556   -233.17603  -0.81689963   -9.8257889    198.18232   -1.0657123   -18.842612  -0.85099261  -0.89889787   -469.95765 
   11400    471.81806    154.87353    173.94538    240.81938    303.73457    2.5864579  -0.74725929   -19.553583   -233.12852  -0.84648773   -19.837398    2.5733863   -0.7512453   -9.8137526   -233.16999  -0.82895809   -9.8177587    198.17479   -1.0785826    -18.82778  -0.85010121   -0.8987275   -469.95748 
   11500    471.81806    172.14174    176.80958    230.11284    303.91271    2.6044233  -0.73043302   -19.539233   -233.14471  -0.84264629    -19.85788      2.59063  -0.74509803   -9.8098734   -233.18382  -0.85040276   -9.8518653    198.16358   -1.0981305   -18.825416   -0.8492098  -0.89855713   -469.95732 
   11600    471.81806    154.71629    167.67136    259.83119    303.78868    2.5831677  -0.73227853   -19.551098   -233.12837  -0.84223317   -19.830972    2.5456008  -0.73031139   -9.8389827   -233.16857  -0.83992844   -9.8291354    198.13663   -1.0753231   -18.810786  -0.84831839  -0.89838675   -469.95715 
   11700    471.81806    165.15907     123.5931    268.36924    304.16248    2.5829734  -0.72484095   -19.552925   -233.10747  -0.81821822   -19.829247    2.5667887  -0.71668744   -9.8041406   -233.14405  -0.84591732   -9.8012319    198.11989    -1.103509   -18.838635  -0.84742699  -0.89821638   -469.95698 
   11800    471.81806    191.02624     228.3162    289.32191    303.70458     2.562642  -0.73705354   -19.533818   -233.11223   -0.8159092   -19.825814    2.5580004  -0.72600582     -9.80236   -233.14287  -0.82875595   -9.8032652    198.12681   -1.1276702   -18.830361  -0.84653558  -0.89804601   -469.95681 
   11900    471.81806    205.94132    201.47281    303.95753    303.89996     2.567184  -0.74841135   -19.570322   -233.07687  -0.81139951   -19.819273    2.5781123  -0.72187073   -9.8562845   -233.10541  -0.75827463   -9.7878665    198.13288   -1.0908219   -18.865328  -0.84564417  -0.89787563   -469.95664 
   12000    471.81806    207.69806    203.65236    295.21533    303.97034    2.5470552  -0.76633833   -19.564467   -233.07845   -0.8266651   -19.816805    2.5678512   -0.7449596   -9.8584282   -233.08166  -0.80156948   -9.8263461    198.12428    -1.083602   -18.869689  -0.84475277  -0.89770526   -469.95647 
   12100    471.81806    227.09518    213.92419    300.61933    304.16125    2.5514503  -0.77068944   -19.577907   -233.08319  -0.83577602   -19.776355     2.557878  -0.76480874   -9.8675564   -233.07035  -0.80625824   -9.7905196    198.12717   -1.1229033   -18.879941  -0.84386136  -0.89753488    -469.9563 
   12200    471.81806    213.56281    249.02707    346.54582    303.63191    2.5819602  -0.74995189   -19.605517   -233.08807  -0.86045943   -19.754934    2.5773754  -0.71304604   -9.8850363   -233.07402  -0.85055069   -9.7555704    198.12737   -1.1331655   -18.860178  -0.84296995  -0.89736451   -469.95613 
   12300    471.81806    227.76714    279.03383    338.09415    303.66135    2.5838843  -0.76332273   -19.609234   -233.08893  -0.85051824   -19.730748    2.5980394  -0.74231396   -9.8994925   -233.08009  -0.86304549    -9.707725    198.13082    -1.127016   -18.829723  -0.84207855  -0.89719414   -469.95596 
   12400    471.81806     256.2125    275.79678    414.76873    303.64927     2.583224  -0.78853557   -19.620212   -233.09206    -0.863934   -19.715197    2.5671601  -0.77735164    -9.901731   -233.11055  -0.85908011   -9.6919153    198.13507   -1.1062566   -18.847309  -0.84118714  -0.89702376   -469.95579 
   12500    471.81806    262.87614    317.04623    385.21126    303.64069    2.5370565  -0.81069514   -19.636101    -233.0901  -0.89516681    -19.68599    2.5223059  -0.80921747   -9.9185439    -233.1045  -0.90458842   -9.6765281    198.13543   -1.0877957   -18.840414  -0.84029573  -0.89685339   -469.95562 
   12600    471.81806    276.88755    288.46606    391.23092    303.97551    2.5685815  -0.78357547   -19.620715   -233.08969  -0.89421866   -19.674785     2.556642  -0.80277417   -9.9088066   -233.11058  -0.89433221   -9.6213623    198.13601   -1.0710867   -18.843439  -0.83940433  -0.89668301   -469.95545 
   12700    471.81806    277.39857    287.27808    403.68218     304.0058    2.5696137  -0.79344737   -19.614378   -233.09325  -0.89832618   -19.644795    2.5652594   -0.7960368   -9.9042706   -233.12869  -0.90151893    -9.616525    198.13245   -1.0643512   -18.866868  -0.83851292  -0.89651264   -469.95528 
   12800    471.81806    270.99729    296.18587    396.81443     304.1576    2.5881134  -0.75996227    -19.61346   -233.09609   -0.9168176   -19.675675    2.5858879  -0.75404707   -9.9214288   -233.11585  -0.90919841   -9.6628408    198.15378   -1.0767727   -18.831976  -0.83762151  -0.89634227   -469.95512 
   12900    471.81806    294.20917    317.36146    393.77768    303.82632    2.5864936   -0.7645301   -19.604193   -233.11834  -0.91084099   -19.667667    2.5930819  -0.75290493   -9.9123943   -233.12721  -0.89504571   -9.6512037    198.16342   -1.0933362   -18.830404   -0.8367301  -0.89617189   -469.95495 
   13000    471.81806    262.28255    305.23396    433.69557    303.95088    2.5797261  -0.78673841    -19.61066   -233.10899   -0.9251764   -19.619212    2.6022811  -0.78781093    -9.924901   -233.09104  -0.91103412    -9.602124    198.15083   -1.0984897   -18.831346   -0.8358387  -0.89600152   -469.95478 
   13100    471.81806    261.51309    310.79689     392.9492    304.31206    2.5782633  -0.78770574    -19.62354   -233.10942  -0.92657547   -19.620569    2.5858752  -0.79950518   -9.9195142   -233.09446  -0.93399571   -9.5667232     198.1459   -1.1039016    -18.81375  -0.83494729  -0.89583114   -469.95461 
   13200    471.81806     290.3848    297.53996    424.38658    303.64732    2.5612713  -0.79133159   -19.620425   -233.09332    -0.900755   -19.637641     2.567949  -0.76532084      -9.9028   -233.07351  -0.90587718   -9.6041286    198.12553    -1.120017   -18.779408  -0.83405588  -0.89566077   -469.95444 
   13300    471.81806    312.04656    272.68488    392.40235    303.95291    2.5816884  -0.78769957   -19.631798   -233.08251  -0.90947122    -19.59837    2.5783456  -0.75748072   -9.9273283   -233.05873  -0.90209388   -9.5749764    198.12465   -1.1095186   -18.781923  -0.83316448   -0.8954904   -469.95427 
   13400    471.81806    288.53691     299.2366    392.21193    304.10386    2.5680608  -0.81626985   -19.614975   -233.09469  -0.90514118   -19.599733     2.558884  -0.79050498   -9.8914253   -233.09179  -0.91164462    -9.574333    198.13394   -1.0999855   -18.752493  -0.83227307  -0.89532002    -469.9541 
   13500    471.81806    305.37758    326.19034    410.48805    303.79872    2.5765479   -0.7927083   -19.615413   -233.12667  -0.93078116   -19.617159    2.5730204  -0.79120495   -9.8964937   -233.14281  -0.94416696   -9.6097524    198.13421   -1.1020246   -18.730137  -0.83138166  -0.89514965   -469.95393 
   13600    471.81806    301.02374    276.76994    426.78701    303.72123      2.58179  -0.79157075   -19.607297   -233.11874  -0.92823088   -19.635726    2.5723036  -0.81598669    -9.917071   -233.13687   -0.9532039   -9.6358337    198.14828   -1.0836745   -18.757768  -0.83049026  -0.89497927   -469.95376 
   13700    471.81806    275.15809    307.79359    415.03567    303.79557    2.5898237  -0.80339869   -19.599164   -233.12167  -0.91103078   -19.654258    2.5808069  -0.81182514   -9.8938251   -233.12929   -0.9038344   -9.6468481     198.1283   -1.0913656   -18.722565  -0.82959885   -0.8948089   -469.95359 
   13800    471.81806    279.60039    293.18492    426.34517    303.81857    2.5926976  -0.79655958    -19.57572   -233.10711   -0.9012306   -19.654822    2.5865488   -0.7996485   -9.8604332   -233.11809  -0.88959376   -9.6417788    198.11772   -1.1121757   -18.720283  -0.82870744  -0.89463853   -469.95342 
   13900    471.81806    304.77176    326.29783    426.42302    303.91957    2.5912646   -0.7802963     -19.5847   -233.10959  -0.87791727   -19.671986    2.5924898  -0.79550608   -9.8597751   -233.12439  -0.86541052   -9.6612667    198.10165   -1.1239217   -18.742393  -0.82781604  -0.89446815   -469.95325 
   14000    471.81806    334.69912    316.01904    446.60309    303.87313    2.5804386  -0.79596858   -19.622821   -233.11679  -0.89243772   -19.672343    2.5625073  -0.79259764   -9.9147611   -233.15019  -0.87471742   -9.6474067    198.10113   -1.1036791   -18.759742  -0.82692463  -0.89429778   -469.95309 
   14100    471.81806    347.94292    308.41691    449.31513    303.46604    2.5839133  -0.80559337   -19.645745   -233.09788  -0.87345339   -19.699445    2.5863484  -0.78912524   -9.9258993   -233.10832  -0.85668137   -9.6624892     198.1037   -1.0970629   -18.770519  -0.82603322   -0.8941274   -469.95292 
   14200    471.81806    320.11714    300.16194    464.92049    303.98931    2.5842571   -0.8212599   -19.670294    -233.1141  -0.87017714   -19.681689    2.5983944  -0.81071445   -9.9320679   -233.12581  -0.85690733   -9.6619831    198.09457   -1.1060082   -18.790529  -0.82514181  -0.89395703   -469.95275 
   14300    471.81806    318.48299    297.34838    452.17575    304.11614    2.5809698  -0.77619407   -19.665946   -233.10375  -0.87227641   -19.706426    2.5822299  -0.76242109   -9.9549533   -233.11066  -0.85188332   -9.6853742    198.11543   -1.0972451   -18.779175  -0.82425041  -0.89378666   -469.95258 
   14400    471.81806     299.4209    307.89356    482.87166    304.27542    2.5762655  -0.76561003   -19.685448   -233.11805  -0.88331847   -19.706425    2.5827423  -0.73920683   -9.9738012   -233.10915  -0.85742787    -9.693712    198.11039   -1.0789288   -18.783321    -0.823359  -0.89361628   -469.95241 
   14500    471.81806    338.85139     361.3409    469.11991    303.76782    2.5687389  -0.74453948   -19.664023   -233.12282  -0.88796388   -19.704351     2.558222  -0.72858729   -9.9537879   -233.13132  -0.89692309   -9.6849156     198.1052   -1.0582668   -18.801701  -0.82246759  -0.89344591   -469.95224 
   14600    471.81806    381.18388    344.85959    472.37513     303.4827    2.5869476  -0.71223718   -19.682476   -233.12346  -0.85883122   -19.705024    2.5840356  -0.70962223   -9.9603173    -233.1412  -0.87889121   -9.6951297    198.12552    -1.046061   -18.821077  -0.82157619  -0.89327554   -469.95207 
   14700    471.81806    351.91019    357.86733    501.34796    303.85258    2.5789605  -0.72318754   -19.715438   -233.11426  -0.85635621   -19.708929    2.5912169  -0.71664009   -9.9808631   -233.13388  -0.84699188   -9.7006745    198.14243   -1.0348856   -18.833116  -0.82068478  -0.89310516    -469.9519 
   14800    471.81806       353.55    343.64974    488.39391    304.21094    2.5723465  -0.70965418   -19.742914   -233.09554   -0.8358678   -19.735304      2.58093  -0.68742053   -9.9969964   -233.12653  -0.81624116   -9.7113336    198.15469    -1.070796   -18.838315  -0.81979337  -0.89293479   -469.95173 
   14900    471.81806    363.49686    371.43421    502.75548    304.00553     2.575655  -0.74340812   -19.734853   -233.10144  -0.83407656   -19.747669    2.6025006  -0.73712929   -9.9915854   -233.12614  -0.82237551   -9.7453906    198.14168   -1.0791278   -18.836062  -0.81890197  -0.89276441   -469.95156 
   15000    471.81806    343.68225    306.32291    482.00844    304.45206    2.6078777  -0.76606539   -19.759603   -233.07079  -0.83483235   -19.770895    2.6265741  -0.75856833   -10.037544   -233.08804  -0.81575803   -9.7870471    198.13627   -1.0973467   -18.826153  -0.81801056  -0.89259404   -469.95139 
   15100    471.81806    352.97599     342.4532    493.92003    304.07507    2.6359615  -0.75593099   -19.783914   -233.05052  -0.84205582   -19.788686    2.6373419  -0.74952638   -10.082972    -233.0624  -0.82029722   -9.8021735     198.1225   -1.1023663   -18.821512  -0.81711915  -0.89242367   -469.95122 
   15200    471.81806    363.86647    371.87925    462.96559    304.22544    2.6166069  -0.74087893   -19.789734   -233.04639  -0.84012894   -19.796108    2.6137467  -0.71016674   -10.082338   -233.04676  -0.83893912   -9.8084039    198.12083   -1.1086424   -18.832353  -0.81622775  -0.89225329   -469.95106 
   15300    471.81806    371.59702     359.1572     539.5426    303.77635    2.6411537  -0.71132123   -19.780552   -233.05771  -0.82414846   -19.796779     2.663582  -0.69145553   -10.075086   -233.06277  -0.83365093    -9.791364    198.10387   -1.0841321   -18.837825  -0.81533634  -0.89208292   -469.95089 
   15400    471.81806    347.90564     338.6363    463.71087    304.18303    2.6533916   -0.6903061   -19.800302   -233.07393  -0.83846807   -19.795159    2.6684574  -0.67631921   -10.085448   -233.06168  -0.81711217    -9.797722    198.11142   -1.1021945    -18.83383  -0.81444493  -0.89191254   -469.95072 
   15500    471.81806    280.64359    298.07373    433.16415    304.40135     2.651436  -0.69871502   -19.803628   -233.09084  -0.85092215   -19.796284    2.6624509   -0.7065999   -10.108945    -233.0825  -0.82787604   -9.7890086    198.13235   -1.0829733   -18.837404  -0.81355353  -0.89174217   -469.95055 
   15600    471.81806    309.13507     307.8977    411.86958    303.91188    2.6465584  -0.72146424   -19.812895   -233.09779  -0.85441622   -19.758589    2.6569058  -0.72230145   -10.109519   -233.10002  -0.84264087   -9.7331857    198.13019    -1.062722   -18.794702  -0.81266212   -0.8915718   -469.95038 
   15700    471.81806    295.31046    307.17505    407.74808    303.64315    2.6460065  -0.70988364   -19.809352    -233.0838  -0.85500006   -19.758184     2.663926  -0.69536807   -10.087468    -233.0801  -0.83290271   -9.7188389    198.12967   -1.0756697   -18.775609  -0.81177071  -0.89140142   -469.95021 
   15800    471.81806    275.68716      281.069     384.4657    303.54646    2.6484409  -0.72132938   -19.801658   -233.09101  -0.87312144   -19.761774    2.6702049  -0.71189794   -10.096781    -233.1117  -0.88232252   -9.7312414    198.13485   -1.0907734   -18.753888   -0.8108793  -0.89123105   -469.95004 
   15900    471.81806    254.67029    261.55372    347.34986    303.89655    2.6735092  -0.71951569   -19.806205    -233.1105  -0.85810216   -19.728213     2.655957  -0.72166291   -10.073746   -233.14162  -0.85374188   -9.6996724    198.13417   -1.1132937   -18.752785   -0.8099879  -0.89106067   -469.94987 
   16000    471.81806     264.2249    276.85055    380.61463    303.71691    2.6638382  -0.71890488   -19.821614   -233.10969  -0.86522725   -19.712224    2.6327881  -0.70544432    -10.08544     -233.127   -0.8695659   -9.6791827    198.14642   -1.1087492   -18.748537  -0.80909649   -0.8908903    -469.9497 
   16100    471.81806    273.81872    244.63284    382.95017    303.84203    2.6930608  -0.73719654   -19.835615    -233.1206  -0.88353852   -19.709967    2.6592917  -0.73725902   -10.124637   -233.11531  -0.87718346   -9.6983737    198.14573   -1.0952275   -18.771998  -0.80820508  -0.89071993   -469.94953 
   16200    471.81806    263.62325    252.63364    385.16635    303.70144    2.6875469  -0.72577924   -19.811546   -233.09622  -0.86708188   -19.722723    2.6530603  -0.71752314   -10.111004   -233.10291  -0.84593984   -9.7072553    198.12815   -1.0654251   -18.757699  -0.80731368  -0.89054955   -469.94936 
   16300    471.81806    243.01404    263.17435    350.86104    303.82014    2.6874743  -0.72937794   -19.800609   -233.09007  -0.87627248    -19.71131    2.6682637  -0.71402823   -10.098289   -233.08735   -0.8659846   -9.7058236    198.12645   -1.0658015   -18.754857  -0.80642227  -0.89037918   -469.94919 
   16400    471.81806    266.63253    246.93999    385.54481    303.85485    2.6887204  -0.71254181      -19.786   -233.08956  -0.86040748   -19.712837    2.6644141  -0.71105753   -10.054742   -233.09137   -0.8578528   -9.7096401    198.11982   -1.0644971   -18.742096  -0.80553086   -0.8902088   -469.94903 
   16500    471.81806    285.20286    286.12916    391.89516    303.72487    2.6905754  -0.69938826   -19.778875   -233.08995  -0.88905967   -19.692719     2.673911  -0.68813585   -10.046447   -233.08789  -0.88631166   -9.6798251    198.12013   -1.0586941    -18.72398  -0.80463946  -0.89003843   -469.94886 
   16600    471.81806    250.36925    259.44447    375.42809    304.00899    2.7071196   -0.7176382   -19.790111   -233.09632  -0.90423891   -19.686161    2.7200339  -0.69033108   -10.054152   -233.06784  -0.90407614   -9.6820454    198.11624   -1.0315672   -18.707821  -0.80374805  -0.88986806   -469.94869 
   16700    471.81806     277.0781    267.15167    345.96486    303.83474    2.6898825  -0.74177645   -19.804698   -233.10558  -0.90574661    -19.67262    2.7070532  -0.72113844   -10.074345   -233.06961  -0.89014191   -9.6748702    198.12625   -1.0230301   -18.673015  -0.80285664  -0.88969768   -469.94852 
   16800    471.81806    218.81017    231.88016    338.19043    304.25969    2.6927841  -0.73711536   -19.801294    -233.1042  -0.90706975   -19.670283    2.7171517  -0.71068942   -10.069654   -233.07405  -0.87446156   -9.6740747    198.12062   -1.0276076   -18.652499  -0.80196524  -0.88952731   -469.94835 
   16900    471.81806    226.31072    243.61698    320.99417    303.71529    2.6919324  -0.72737062   -19.749318   -233.09623  -0.89036862   -19.668907    2.7135333  -0.72533748   -10.036665   -233.07902  -0.86878234   -9.6815052    198.13821    -1.013174   -18.672359  -0.80107383  -0.88935694   -469.94818 
   17000    471.81806    207.29813    250.57669    281.93837    303.96468    2.7022182  -0.73126289   -19.726109   -233.08607  -0.87879405   -19.664185     2.716504  -0.74498376   -10.028187   -233.08228  -0.89382411   -9.6655162    198.13697   -1.0379101   -18.656039  -0.80018242  -0.88918656   -469.94801 
   17100    471.81806    193.92736    167.45703    296.34389    303.80672     2.692702  -0.76418205   -19.714135   -233.08051  -0.88408843   -19.659302    2.7142936  -0.74741238    -9.995365   -233.07529  -0.90875345   -9.6419237    198.13554   -1.0365559   -18.640203  -0.79929102  -0.88901619   -469.94784 
   17200    471.81806    168.96555    185.49985    211.08939    303.80195    2.6908472  -0.76000954   -19.705607   -233.07636   -0.8748743   -19.650116    2.6941801  -0.74319282   -9.9931444   -233.07033  -0.85992511   -9.6412391    198.12984   -1.0437854   -18.659853  -0.79839961  -0.88884581   -469.94767 
   17300    471.81806    142.76334    119.85593    189.94523    303.79504    2.7118294  -0.75196148   -19.679981   -233.07208  -0.86859182   -19.634192    2.7090043  -0.74991381   -9.9921766   -233.06449  -0.86725231   -9.6149172    198.11752   -1.0522812   -18.677232   -0.7975082  -0.88867544    -469.9475 
   17400    471.81806    117.20255    125.05276    193.15549    303.70999    2.6908082  -0.72620174   -19.655073   -233.09152  -0.87000544   -19.621197     2.676093  -0.73852701   -9.9622009   -233.08127  -0.86103117   -9.6007168    198.12976   -1.0411527   -18.687743  -0.79661679  -0.88850507   -469.94733 
   17500    471.81806    117.79843    121.76942    177.40455    304.05167    2.6842987  -0.71861556   -19.666165   -233.09682  -0.87493315    -19.60789    2.6672939  -0.72082697   -9.9606797   -233.08705  -0.87804386   -9.5836212    198.13019   -1.0588596   -18.676276  -0.79572539  -0.88833469   -469.94716 
   17600    471.81806    140.96382    122.46734    170.29501    304.06572    2.6863557  -0.72491331   -19.706142   -233.08695  -0.87183124   -19.606679    2.6703753  -0.72766356   -9.9963137   -233.07988  -0.87589311   -9.5958201    198.13931   -1.0781013   -18.660097  -0.79483398  -0.88816432     -469.947 
   17700    471.81806    144.98566     188.7283    217.48117    303.55477    2.6864379  -0.71043423   -19.687068   -233.08135  -0.88667452   -19.623144    2.6723732   -0.6998107   -9.9777522   -233.05143  -0.89257942   -9.6226773    198.15465   -1.0799701   -18.663456  -0.79394257  -0.88799394   -469.94683 
   17800    471.81806    152.19238    166.42439    231.25372    303.89889    2.6706771  -0.71215711   -19.671751   -233.07368  -0.88200548   -19.657152    2.6478227   -0.6847152   -9.9965016   -233.05134  -0.86791932   -9.6572476    198.18088   -1.0816617   -18.628603  -0.79305117  -0.88782357   -469.94666 
   17900    471.81806    172.35868    161.64235    241.55576     303.8502    2.6791456  -0.74445305   -19.623285   -233.07753  -0.86977242   -19.659778    2.6491686  -0.71222357   -9.9391514   -233.06606  -0.85271939   -9.6454241    198.18135    -1.072021   -18.659438  -0.79215976   -0.8876532   -469.94649 
   18000    471.81806    160.11612    175.25465     248.0906    303.69453     2.688823  -0.73357421   -19.621191   -233.08633  -0.88468073   -19.674997    2.6866814  -0.70133088   -9.9050557   -233.07988  -0.87950078   -9.6528723    198.16211   -1.0730068   -18.674318  -0.79126835  -0.88748282   -469.94632 
   18100    471.81806    176.60003    192.69381    271.73777    303.45213    2.7148314  -0.71453162   -19.592926   -233.07362  -0.87078013   -19.684419    2.7136559  -0.68462936   -9.8784242   -233.08301  -0.85624071   -9.6378592    198.18343    -1.100887   -18.664388  -0.79037695  -0.88731245   -469.94615 
   18200    471.81806     156.6566    140.67145    219.64088    304.05888    2.7377762  -0.71247043   -19.574961   -233.06254  -0.87733507   -19.674834    2.7475214  -0.70156214   -9.8780531   -233.06548  -0.88683394   -9.6227622      198.174   -1.1124372   -18.674492  -0.78948554  -0.88714207   -469.94598 
   18300    471.81806    106.85053    138.97591    195.66271    304.27741    2.7255685  -0.75718217   -19.566724   -233.06087  -0.89659504   -19.646969    2.7253435  -0.77838835   -9.8531268    -233.0828  -0.90223957   -9.6139851    198.17515   -1.1230722   -18.680786  -0.78859413   -0.8869717   -469.94581 
   18400    471.81806    130.40412    141.94954     204.9732     303.8514    2.7151113  -0.76062747   -19.529352   -233.06518  -0.88825558   -19.655102    2.7228904  -0.75669953   -9.8140374   -233.07201  -0.89609587   -9.6080664    198.16047    -1.142021   -18.666595  -0.78770273  -0.88680133   -469.94564 
   18500    471.81806    128.42492    145.54315    173.02043    303.89832    2.6891358  -0.74419445   -19.532347   -233.08639  -0.88030144   -19.634069    2.7008431  -0.73759849    -9.841405   -233.08774  -0.89814249   -9.6012908    198.16297   -1.1539097   -18.662077  -0.78681132  -0.88663095   -469.94547 
   18600    471.81806    108.13014    97.781457    147.83854    303.99983    2.6808924   -0.7552556   -19.516401   -233.07728  -0.86775255   -19.615851    2.6989322  -0.74407013   -9.8042201   -233.08148  -0.86533446   -9.6049645    198.16131   -1.1475991   -18.657706  -0.78591991  -0.88646058    -469.9453 
   18700    471.81806     99.39902    103.37968    187.59096    303.90278    2.6466605  -0.76323727   -19.506102    -233.0816  -0.85070089   -19.615791    2.6487073  -0.73762906   -9.7762679   -233.09578  -0.84278175   -9.6221932    198.19228   -1.1305482   -18.632178  -0.78502851   -0.8862902   -469.94513 
   18800    471.81806    89.705867    114.18738    184.35989    303.99959    2.6374538  -0.75887635    -19.48207   -233.06427  -0.87801981   -19.614766    2.6143395  -0.74936014   -9.7557808   -233.06032  -0.86418122    -9.604638    198.18025   -1.1340539    -18.64091   -0.7841371  -0.88611983   -469.94496 
   18900    471.81806    110.09468    138.60829    189.48968    303.68397    2.6177215  -0.76298658    -19.45587   -233.08085  -0.89940305   -19.608982    2.6000549  -0.75710253   -9.7308342   -233.07398    -0.871127   -9.5837732    198.17939   -1.1651675   -18.656783  -0.78324569  -0.88594946    -469.9448 
   19000    471.81806    88.550642    98.034716     174.0083    303.74803    2.6245092  -0.77227038   -19.436395   -233.10816  -0.90547104   -19.632157    2.6012828  -0.76869444   -9.7290371   -233.10614  -0.90425171   -9.6275551    198.17844   -1.1602272    -18.68558  -0.78235428  -0.88577908   -469.94463 
   19100    471.81806    67.165104    83.254057    156.32305    303.80613    2.6410737  -0.79918962   -19.432688   -233.10379  -0.89425712   -19.637696    2.6013213  -0.79072374   -9.7354827   -233.10908  -0.89944751   -9.6288002    198.17325   -1.1455463   -18.710808  -0.78146288  -0.88560871   -469.94446 
   19200    471.81806    80.654461    76.933895    136.55208    303.65192    2.6554787  -0.80295733   -19.462327   -233.11558  -0.89395808   -19.634756    2.6323234  -0.78579593   -9.7756863   -233.11062  -0.87496495   -9.6414813    198.17063   -1.1280504   -18.721452  -0.78057147  -0.88543833   -469.94429 
   19300    471.81806    48.615591    53.700202    125.53762      303.971    2.6551697   -0.7869963   -19.504269   -233.11243  -0.89143944   -19.613973    2.6510162  -0.77351038   -9.8207334   -233.10953    -0.859171   -9.6078748    198.17171   -1.1369196   -18.718588  -0.77968006  -0.88526796   -469.94412 
   19400    471.81806    20.263822    73.851877    88.880836     303.9179     2.652682  -0.78500434   -19.506273   -233.09571  -0.88898573   -19.602742    2.6522305  -0.79346105    -9.820759   -233.09571  -0.87289937   -9.5839046    198.17111   -1.1190277   -18.712231  -0.77878866  -0.88509759   -469.94395 
   19500    471.81806    21.917017    51.554774    83.162775    303.68684    2.6413235  -0.76701639   -19.489525   -233.11632  -0.89178659   -19.597251    2.6598181  -0.76833041   -9.8051365   -233.12453  -0.87786857   -9.5733618    198.14069   -1.1332585   -18.683474  -0.77789725  -0.88492721   -469.94378 
   19600    471.81806     15.31393    46.177636    73.232072    303.60432    2.6489414  -0.80100624   -19.498087   -233.08972  -0.91820388   -19.573119    2.6841877  -0.80443175   -9.8098145   -233.12063  -0.91863957   -9.5440698    198.15129    -1.137212   -18.685094  -0.77700584  -0.88475684   -469.94361 
   19700    471.81806    30.071941    24.794366    53.550669    303.64467    2.6680407  -0.81135024   -19.481648   -233.06757  -0.91313257   -19.571896     2.698695  -0.82000807   -9.7968178   -233.07961  -0.90619017   -9.5383747    198.14604   -1.1311678   -18.662095  -0.77611444  -0.88458647   -469.94344 
   19800    471.81806   -22.231285    5.5248783    18.772087     304.0064    2.6696316  -0.80983991   -19.433276    -233.0624  -0.89820445   -19.582367    2.6810545    -0.816799   -9.7474868   -233.04191  -0.88713986   -9.5438588    198.15635    -1.105889   -18.660641  -0.77522303  -0.88441609   -469.94327 
   19900    471.81806   -5.2401765   -15.065284    10.691279    303.86862    2.6836009  -0.80085059   -19.430343    -233.0536  -0.92638345   -19.593562    2.6976574   -0.8198924   -9.7493872   -233.03782  -0.93070858   -9.5464595    198.17163   -1.0876339   -18.662304  -0.77433162  -0.88424572    -469.9431 
   20000    471.81806   -27.166591   -7.7157527     -2.98075    303.84796    2.7010263  -0.79878024   -19.452666   -233.07465  -0.91465195   -19.567129    2.7066933  -0.79277119   -9.7779149   -233.05632  -0.93473204   -9.5249204    198.18274   -1.0649965   -18.656565  -0.77344022  -0.88407534   -469.94293 
   20100    471.81806   -9.8830752   -23.642455    24.771214    303.66838    2.7110203  -0.78610415   -19.436923   -233.05879  -0.87551544   -19.583117     2.698043  -0.75983964   -9.7469182   -233.04051  -0.90652334   -9.5549806    198.19996    -1.083219    -18.66699  -0.77254881  -0.88390497   -469.94277 
   20200    471.81806   -57.532563   -60.480594   -33.577123    303.76698    2.6938852  -0.79108575   -19.441747   -233.05912  -0.87818933   -19.603939     2.667413  -0.76216174   -9.7482209   -233.04425  -0.90288732   -9.5750925     198.2033   -1.1088796   -18.671329   -0.7716574   -0.8837346    -469.9426 
   20300    471.81806   -81.140917   -67.550088   -64.657345     303.7695    2.6781124  -0.76455056   -19.451097   -233.07432  -0.87760745   -19.594965    2.6750344  -0.75385665   -9.7641206   -233.07587  -0.85404113   -9.5892468    198.19176   -1.0897314   -18.675835    -0.770766  -0.88356422   -469.94243 
   20400    471.81806   -119.25502    -107.2474   -93.189801     303.7509    2.6663105  -0.75783949   -19.463462   -233.05857  -0.85477802   -19.581314    2.6726985  -0.72197958   -9.7596225    -233.0549  -0.82620044   -9.5781768    198.21136   -1.0876737   -18.667087  -0.76987459  -0.88339385   -469.94226 
   20500    471.81806   -113.55058    -94.82127   -148.35807    303.52224    2.6545634  -0.77374245   -19.460049   -233.05551  -0.86135026   -19.598699    2.6717979  -0.73420935   -9.7397568   -233.07754   -0.8300728   -9.6003673    198.22205   -1.0958544   -18.658909  -0.76898318  -0.88322347   -469.94209 
   20600    471.81806   -135.23539   -83.923454   -188.31179    303.95336    2.6494127  -0.77841264   -19.484482   -233.05429  -0.85226607   -19.608319    2.6745374  -0.73501118   -9.7355029   -233.07236  -0.85167169   -9.6110818    198.24464   -1.1155442   -18.667003  -0.76809177   -0.8830531   -469.94192 
   20700    471.81806   -124.03191   -111.94365   -149.29405    303.41591    2.6639248  -0.80155614   -19.481181   -233.06587  -0.88601348   -19.605104    2.6801257  -0.76634592   -9.7397785   -233.08925  -0.86006542   -9.6081334    198.23193   -1.1125367   -18.660511  -0.76720037  -0.88288273   -469.94175 
   20800    471.81806   -135.47567   -128.11279   -139.61794     303.8127    2.6565828  -0.81053376   -19.461634   -233.05373  -0.90479405   -19.585975    2.6579471  -0.82242827   -9.7261169   -233.06551  -0.89181004   -9.5398244    198.22754   -1.0526326   -18.664907  -0.76630896  -0.88271235   -469.94158 
   20900    471.81806   -143.51358   -120.81623   -181.29895     303.6934    2.6464943   -0.8215091   -19.470681    -233.0179  -0.92753158   -19.603214    2.6347276  -0.82394806   -9.7466241   -233.03945  -0.92354099   -9.5619981    198.23979   -1.0457637   -18.671769  -0.76541755  -0.88254198   -469.94141 
   21000    471.81806   -156.59467    -137.8707   -144.49241    303.70244    2.6414607  -0.80510842   -19.468958   -232.99553  -0.91894322   -19.587833    2.6328117  -0.81065216   -9.7699037    -233.0163  -0.90379444   -9.5704069    198.22362   -1.0509112   -18.683951  -0.76452615   -0.8823716   -469.94124 
   21100    471.81806   -152.90709   -133.07929   -185.16041    303.74918    2.6405301  -0.78822635   -19.438845   -233.00057   -0.9278605   -19.582332     2.629123  -0.80535592   -9.7473546   -233.02295  -0.90852396   -9.5557945    198.22583   -1.0450098   -18.661129  -0.76363474  -0.88220123   -469.94107 
   21200    471.81806   -146.56903   -157.13131   -191.35544    303.68867    2.6409569  -0.78268905   -19.435407   -232.99901  -0.94031961   -19.581252    2.6166929  -0.79349623   -9.7471658   -233.00128  -0.93350539   -9.5679059    198.24458   -1.0502084   -18.664062  -0.76274333  -0.88203086    -469.9409 
   21300    471.81806   -147.68665   -142.45843   -196.99307    303.37051    2.6165945  -0.77303013   -19.446051   -233.01391  -0.93133665   -19.601362    2.5717736  -0.80000809   -9.7491265   -233.01022  -0.92628787   -9.5742397    198.23802   -1.0657814   -18.666794  -0.76185193  -0.88186048   -469.94074 
   21400    471.81806   -211.42988   -168.39251   -219.77982    303.68286    2.6091354  -0.74737644   -19.452646   -233.00876   -0.9218621   -19.616239    2.5836523  -0.76025793   -9.7656698    -232.9949  -0.93519649   -9.5937482    198.23391    -1.097354   -18.659623  -0.76096052  -0.88169011   -469.94057 
   21500    471.81806   -187.19241   -193.52882   -202.10323    303.63616    2.5864464    -0.750717   -19.453472    -233.0174  -0.85400581   -19.605157    2.5891871  -0.73339425   -9.7547158   -233.00733  -0.85685722   -9.5595196     198.2166    -1.138236   -18.648062  -0.76006911  -0.88151973    -469.9404 
   21600    471.81806   -157.99336   -170.47092   -202.10431    303.16189    2.5893439  -0.76394685   -19.453336   -233.01117  -0.82330302   -19.614968    2.5750399   -0.7282585    -9.740052   -233.00364  -0.81644774   -9.6022797    198.21431   -1.1281729   -18.648359  -0.75917771  -0.88134936   -469.94023 
   21700    471.81806   -190.05065   -165.15239   -196.12025     303.4297    2.5723879  -0.78511236   -19.437429   -233.01564  -0.84201025   -19.627765    2.5721265  -0.74316229   -9.7227012   -233.01703   -0.8320742   -9.6209606    198.21512   -1.1198083   -18.682166   -0.7582863  -0.88117899   -469.94006 
   21800    471.81806   -186.98647    -158.2271   -241.66762    303.81262    2.5812152  -0.76571459   -19.419604   -233.04445  -0.85988543   -19.624793    2.5894774  -0.72439042   -9.7066567   -233.07239  -0.84722746   -9.6119221    198.20954   -1.1427655   -18.666905  -0.75739489  -0.88100861   -469.93989 
   21900    471.81806   -180.62914   -179.90319   -221.76739    303.49013    2.5639429  -0.76038333   -19.418573   -233.05203   -0.8459953    -19.59723    2.5760968  -0.73529856    -9.738411   -233.06604  -0.86002524   -9.5615342      198.199   -1.1269273    -18.66009  -0.75650349  -0.88083824   -469.93972 
   22000    471.81806   -198.65005   -190.75171   -255.19313    303.19087    2.5556192  -0.75457197   -19.430358   -233.06306  -0.86451918   -19.596636    2.5707904  -0.73810071   -9.7486791   -233.08215  -0.88259369   -9.5355677    198.21961   -1.1367643   -18.664433  -0.75561208  -0.88066787   -469.93955 
   22100    471.81806   -212.79186   -200.71101   -252.14889    303.63334      2.54876  -0.74377196   -19.403983   -233.07783  -0.87303023   -19.588816    2.5686987  -0.75408484   -9.7171709   -233.10294   -0.8811561   -9.5603916    198.20993   -1.1230545   -18.674914  -0.75472067  -0.88049749   -469.93938 
   22200    471.81806   -219.41956   -209.33484   -260.04515    303.74342    2.5512458  -0.75314488   -19.435437    -233.0824  -0.86948281   -19.571493    2.5743033  -0.75064108   -9.7302554   -233.10266  -0.83189351   -9.5379712    198.20101   -1.0865672   -18.649534  -0.75382926  -0.88032712   -469.93921 
   22300    471.81806   -200.19116   -213.49588    -244.6171    303.58194    2.5299538  -0.72041972   -19.457398   -233.09255  -0.86512892    -19.57074    2.5442233  -0.71733368   -9.7547036   -233.11552  -0.82583031   -9.5621151    198.19703   -1.0673173   -18.631633  -0.75293786  -0.88015674   -469.93904 
   22400    471.81806   -191.16992   -185.67149   -209.36052    303.34311    2.5604043   -0.7208265    -19.47469   -233.10086  -0.84820137   -19.590502    2.5522777  -0.72825397    -9.778439   -233.11559   -0.8195318   -9.5459306    198.21289   -1.0827949   -18.626889  -0.75204645  -0.87998637   -469.93887 
[...]
  999000    471.81806    103.58454    119.65048    169.07118    304.01442    11.477103   0.89596046   -18.015331   -224.18225   0.75779711   -17.972072     11.45013   0.90144935   -8.3407005    -224.1896   0.78039226   -7.9526553    206.96834   0.61486681   -17.090369    7.9534332   0.78388536   -468.28666 
  999100    471.81806    126.29013    118.23184    187.82838    303.41977    11.478707   0.86965474   -17.998423   -224.20835   0.76645491   -17.986678    11.463097   0.87019778   -8.3478988    -224.2125   0.79228941   -7.9529678    206.96808   0.63421759   -17.098513    7.9543246   0.78405574    -468.2865 
  999200    471.81806    80.066302    114.87653    168.46143    303.64022    11.473809   0.85139492   -17.987283   -224.20806   0.80406059   -18.017395    11.456088    0.8433274   -8.3049579   -224.18906   0.83147645   -7.9768458    206.98781   0.63720951   -17.112454     7.955216   0.78422611   -468.28633 
  999300    471.81806    105.76301    84.400712    138.27377     303.6509    11.489834   0.85031033   -17.973235   -224.20678   0.78945035   -18.032971    11.482371   0.87107444   -8.2896571   -224.19576   0.81118128   -7.9838782    206.98131   0.62665109   -17.115002    7.9561074   0.78439649   -468.28616 
  999400    471.81806    56.774578    71.565197    115.58082    304.04183    11.482805   0.85181924   -17.982294   -224.21319   0.78872447   -18.066623    11.480735   0.86338423   -8.3008563   -224.19567   0.81423981   -8.0155722    206.98964   0.62472401   -17.125385    7.9569988   0.78456686   -468.28599 
  999500    471.81806    89.538449    64.896141      146.988    303.87196    11.502565    0.8428799   -17.991349   -224.21915   0.78262501    -18.08262    11.493815   0.86040476   -8.3160967   -224.22133   0.78301072   -8.0682693    207.02325   0.61309211   -17.108928    7.9578902   0.78473723   -468.28582 
  999600    471.81806    77.020453     92.53152    140.07938    303.83831    11.517615   0.83019459   -17.997844   -224.22842   0.78867824   -18.050639    11.507815   0.83019095   -8.2886014   -224.24317   0.78259801   -8.0502505    207.01464   0.59765778   -17.091236    7.9587816   0.78490761   -468.28565 
  999700    471.81806    66.917178    72.778356    89.036108    303.82914    11.548645   0.85240054   -18.000289    -224.2448   0.80766973   -18.041889    11.556493   0.86365203   -8.2678859   -224.28832   0.81926717   -8.0515358    207.01593   0.58081497   -17.068693     7.959673   0.78507798   -468.28548 
  999800    471.81806    62.101689    60.354701    122.65086    303.73079    11.544077   0.87124228   -17.993339     -224.239   0.81596792   -18.038557    11.546951   0.86332041   -8.2603958   -224.27444   0.83778013   -8.0502746    207.00516   0.58372633   -17.061062    7.9605644   0.78524836   -468.28531 
  999900    471.81806     37.72238    68.581227    117.64268     303.9122    11.560399     0.893647   -18.006895   -224.25597   0.82773796   -18.029776    11.583388   0.89698525   -8.2933396   -224.29691   0.82735843   -8.0655291    206.99994   0.58650011   -17.032591    7.9614558   0.78541873   -468.28514 
 1000000    471.81806    42.745797    63.065793    88.999353     303.8121    11.550114   0.90094181   -18.027232   -224.25529   0.83647829   -18.024602    11.544437   0.89353209   -8.3324122   -224.27058   0.83355098   -8.0491366    206.98121   0.57226869   -17.022398    7.9623472    0.7855891   -468.28497 
 1000100    471.81806    43.838593    34.736213    77.463411    303.95976    11.568151   0.91088857   -17.991592   -224.25106   0.85519119   -18.032684    11.561562    0.9110237    -8.303089   -224.26528   0.86699884   -8.0398831    206.99364   0.55504439   -17.031259    7.9632386   0.78575948    -468.2848 
 1000200    471.81806    19.700196    27.438882    44.393553    303.72673    11.563976   0.86547832   -18.003389   -224.25815   0.85208669   -18.023819    11.569454   0.89640507   -8.3100451   -224.24648   0.87305239   -8.0123885    207.01573   0.53497397   -17.054211      7.96413   0.78592985   -468.28463 
 1000300    471.81806    -24.33435   -4.5062524    7.1781838    303.87894    11.544146   0.85384916   -17.979715   -224.26015   0.82417927   -17.996718    11.538292   0.87425243   -8.2998962   -224.23972   0.83437884   -8.0002807     206.9978   0.53416913   -17.052341    7.9650214   0.78610023   -468.28447 
 1000400    471.81806   -25.769956   -23.588253   -11.802292    303.73779    11.546727   0.84045386   -17.983633   -224.25211   0.80487703    -17.96952    11.540216    0.8730383   -8.2915736   -224.25388   0.81291661   -7.9811256    206.97128   0.53670035   -17.029505    7.9659129    0.7862706    -468.2843 
 1000500    471.81806    -77.89194   -54.126496   -89.070891    304.15294    11.554012   0.87802122   -17.947807   -224.27026   0.80805546   -17.955369    11.559884     0.904349   -8.2450786   -224.28454   0.81864981   -7.9604521     206.9813   0.53348221   -17.024468    7.9668043   0.78644097   -468.28413 
 1000600    471.81806   -86.919549    -52.34474   -83.161319    303.78742    11.549842   0.87004721   -17.970888   -224.25944    0.8043567   -17.943059    11.583375   0.88837267   -8.2666866   -224.26883   0.84006566   -7.9204352    206.97782   0.53535865   -17.013775    7.9676957   0.78661135   -468.28396 
 1000700    471.81806   -118.79692    -106.2307   -80.981933    303.78404    11.521246    0.8722966   -17.984713   -224.24943   0.80702821   -17.906887     11.56021   0.86776985    -8.288595   -224.28047   0.81089734   -7.8748673    206.97921   0.52625431    -17.02051    7.9685871   0.78678172   -468.28379 
 1000800    471.81806   -118.88881   -94.050752   -117.67922    303.77985    11.519273   0.85275898   -17.996125   -224.25098   0.78402723   -17.910581    11.563575   0.85733011   -8.3179282   -224.26477    0.7914501   -7.8457399    206.99194   0.54120174   -17.053236    7.9694785   0.78695209   -468.28362 
 1000900    471.81806   -126.48206   -115.15742    -122.0273    303.65002    11.522142   0.83538252   -18.014684   -224.26085   0.76006373   -17.886978    11.561944   0.81124963   -8.3473983   -224.27739   0.75832665   -7.7976008    206.98857   0.57666948    -17.04543    7.9703699   0.78712247   -468.28345 
 1001000    471.81806   -107.55056   -93.567634   -151.50905    303.88339    11.509669   0.84231719   -18.005589   -224.24333   0.75401007   -17.901077    11.541655   0.80526865   -8.3249658   -224.26476   0.75701262   -7.8467738      206.995    0.5709158   -17.045457    7.9712613   0.78729284   -468.28328 
 1001100    471.81806   -110.44158   -108.25087   -99.306434    303.87731    11.502375    0.8401837   -17.995994   -224.23642   0.72632948   -17.882474    11.530072   0.84274409   -8.3033591   -224.25919   0.73731897   -7.8219009    207.01492   0.57340199   -17.058051    7.9721527   0.78746322   -468.28311 
 1001200    471.81806   -57.319258   -93.656146   -75.914038    303.42043    11.512438   0.81253949   -17.975018   -224.24513   0.72170086   -17.884283    11.520536   0.80828915    -8.275868   -224.26012   0.70217908   -7.8458746    207.01148   0.57143812   -17.045683    7.9730441   0.78763359   -468.28294 
 1001300    471.81806    -118.6815    -120.1196   -136.24998    304.04434    11.517999   0.81091253   -17.968269   -224.23443   0.71407359   -17.885305       11.511   0.79453348   -8.2988494   -224.24275   0.69157053   -7.8734061    207.00918    0.5663296   -17.012498    7.9739355   0.78780396   -468.28277 
 1001400    471.81806   -127.68304   -148.70222   -141.63132    303.93344     11.52085   0.80900372   -17.996139   -224.22602    0.6868326    -17.86561     11.48236   0.81834514   -8.3096701   -224.22087   0.67812147   -7.8655067    207.00437   0.57703244   -16.995521    7.9748269   0.78797434    -468.2826 
 1001500    471.81806   -135.15982   -144.67731   -164.67987     303.7584    11.510991   0.82830084   -17.983564   -224.22582   0.70516911   -17.881136     11.46935   0.85346231   -8.2879812   -224.22667     0.709329   -7.8643645    207.01675   0.55911803   -16.938995    7.9757183   0.78814471   -468.28244 
 1001600    471.81806   -137.58998   -132.47801   -199.24263    303.74161    11.496793   0.84188086   -17.956181   -224.21608   0.71739926    -17.88616    11.448288   0.86267587   -8.2638233   -224.21061   0.71502647   -7.8744472    207.01407   0.51635634   -16.923349    7.9766097   0.78831509   -468.28227 
 1001700    471.81806    -160.3751   -148.71791   -178.02833    303.71119    11.497297    0.8554662   -17.931212   -224.21018   0.73225774   -17.888375    11.464217   0.86375192   -8.2214378   -224.21871   0.75272547   -7.8586606    207.00327   0.53120941   -16.939659    7.9775011   0.78848546    -468.2821 
 1001800    471.81806   -189.33512    -164.3059   -219.90969    303.89571    11.506082   0.84573809   -17.902821   -224.18522   0.73445531   -17.909828    11.491547   0.82896457   -8.2026926   -224.20077   0.74637374   -7.8996205    207.02724     0.519891   -16.960028    7.9783926   0.78865583   -468.28193 
 1001900    471.81806   -180.39281   -190.78967   -235.57468    303.84216    11.488877   0.86164128   -17.914036   -224.18877   0.74347603   -17.900338    11.483117   0.88212962   -8.1917228   -224.21224   0.76291876   -7.9066996    207.01218   0.49335155   -16.936083     7.979284   0.78882621   -468.28176 
 1002000    471.81806   -148.88029   -182.91449   -220.82407    303.84005    11.488636   0.88931021   -17.911128   -224.18972   0.74686233   -17.907802    11.488998   0.92519925    -8.200699   -224.20551   0.75830742   -7.8874201    207.00719   0.48046509   -16.904485    7.9801754   0.78899658   -468.28159 
 1002100    471.81806   -143.28352   -173.61122   -203.83707    303.53686    11.490885   0.88880319      -17.907   -224.17392   0.75212089   -17.915165    11.489548   0.90792596   -8.2204851   -224.18859   0.77457016   -7.9075804    206.98454   0.48097185   -16.903888    7.9810668   0.78916696   -468.28142 
 1002200    471.81806   -179.23101   -162.43148   -234.42307    303.62818    11.474485   0.89543342   -17.899277   -224.15921     0.764892   -17.903193    11.486325   0.90909058   -8.2099836   -224.18187   0.79103264   -7.9020259    206.99659   0.48700147    -16.91212    7.9819582   0.78933733   -468.28125 
 1002300    471.81806   -185.32409   -155.49648   -206.55226    303.77468    11.466726   0.90942674   -17.876099    -224.1788   0.74393754   -17.880122    11.485714   0.92035398   -8.2060818   -224.17729   0.76057351   -7.9019294    207.00723     0.508446   -16.920284    7.9828496    0.7895077   -468.28108 
 1002400    471.81806   -182.99541   -163.06586   -201.45997    303.76794    11.489645   0.89981968   -17.861284   -224.17842   0.72694193   -17.856971    11.488821   0.89025846   -8.2088358   -224.19984   0.73431548   -7.8886378    207.01365   0.51268298   -16.912174     7.983741   0.78967808   -468.28091 
 1002500    471.81806    -158.7965   -122.18925   -181.08807    303.68503    11.474573   0.92200495   -17.851616   -224.18812   0.73480401   -17.887135    11.476926   0.92824348   -8.1560934   -224.19258   0.72556535    -7.917075    207.01581   0.51493966   -16.921331    7.9846324   0.78984845   -468.28074 
 1002600    471.81806   -153.00017   -120.32326   -193.78895    303.60743    11.481206   0.92445659   -17.872187   -224.18381   0.72274047   -17.898243    11.471157   0.91884335   -8.1778805   -224.19265   0.72924094   -7.9202189    207.01454   0.51228966   -16.947234    7.9855238   0.79001883   -468.28057 
 1002700    471.81806   -178.74358   -163.73026   -216.62543    303.86086    11.495835   0.94216493   -17.841823   -224.18152   0.71752216   -17.827646    11.486977   0.95089122   -8.1590305   -224.18725   0.70594513   -7.8272601     207.0412   0.51093126   -16.966067    7.9864152    0.7901892   -468.28041 
 1002800    471.81806   -209.09945   -209.15448   -219.77682    303.84421    11.483919   0.91736583   -17.823846   -224.17067     0.708968   -17.798087     11.47567   0.93056895   -8.1328683   -224.15424   0.68523498   -7.7760717    207.03817   0.51242029   -16.952699    7.9873066   0.79035957   -468.28024 
 1002900    471.81806   -213.12247   -177.00216   -242.42548     303.8152    11.499675   0.94236889   -17.829516   -224.16996   0.70202267   -17.812352    11.512214   0.95593675   -8.1376128   -224.13556   0.70519578   -7.7904467     207.0387   0.53287511   -16.929952     7.988198   0.79052995   -468.28007 
 1003000    471.81806   -183.92577   -208.84116   -247.40262    303.75205    11.509995   0.94860485   -17.830688    -224.1577   0.71165508   -17.795359    11.512424   0.97741677   -8.1302115   -224.14249   0.68694962   -7.7432553    207.04414   0.52918557   -16.918409    7.9890894   0.79070032    -468.2799 
 1003100    471.81806   -234.16162   -158.56283   -212.75926    303.32866    11.520105   0.90021484   -17.833807   -224.16397   0.71547192   -17.805688      11.5302   0.92352911   -8.1419441   -224.14472   0.71860431   -7.7636986    207.07128   0.51676447   -16.898368    7.9899808   0.79087069   -468.27973 
 1003200    471.81806   -242.97149   -216.98239   -257.08338    303.77072    11.540084   0.89749165   -17.822156   -224.19227   0.69556327   -17.770427    11.570053   0.92338588   -8.1280092   -224.19026   0.71568477   -7.7067682     207.0769   0.53296516   -16.868675    7.9908722   0.79104107   -468.27956 
 1003300    471.81806   -241.52074   -244.39264   -285.64792    303.73281    11.523828   0.89786773   -17.803311   -224.21838   0.71786559   -17.773443    11.550851   0.91710163   -8.1310837   -224.22238   0.75023114   -7.7235865    207.05563   0.55254158   -16.870067    7.9917637   0.79121144   -468.27939 
 1003400    471.81806   -263.39491   -203.23897   -293.01968    303.47513    11.526495   0.91006307   -17.806005   -224.21119   0.69443707   -17.780026    11.535683   0.93236892   -8.1114522   -224.24642   0.73088962   -7.7609045    207.02933   0.54304386   -16.851586    7.9926551   0.79138182   -468.27922 
 1003500    471.81806   -229.81685   -207.16791   -299.09313     303.3149    11.513874   0.91530562   -17.825355   -224.21983   0.73299575   -17.799872    11.531987   0.91484456   -8.1278162   -224.23422   0.76500886   -7.7865043    207.04029    0.5377288     -16.8152    7.9935465   0.79155219   -468.27905 
 1003600    471.81806   -258.52961   -243.03545   -302.17726    303.90854    11.525173   0.91595313   -17.835611   -224.21022   0.77596307    -17.77583    11.528632   0.91499559   -8.1550925   -224.19518   0.78214727   -7.7610652    207.05291   0.52829124   -16.809714    7.9944379   0.79172256   -468.27888 
 1003700    471.81806   -280.60493   -242.66898   -339.04926    303.64108    11.533864   0.92293449   -17.853446    -224.2161   0.78081616   -17.785196    11.522635    0.9209037   -8.1681759   -224.21211   0.77183839   -7.7714735    207.05445   0.50142804   -16.807375    7.9953293   0.79189294   -468.27871 
 1003800    471.81806   -261.81354   -272.76895   -322.84877    303.45098    11.534399   0.90234507   -17.865741   -224.22513   0.76056959   -17.779276    11.539734   0.89435743   -8.1793833   -224.20981   0.75840512   -7.7957787     207.0496   0.50391283   -16.827376    7.9962207   0.79206331   -468.27854 
 1003900    471.81806   -271.99622   -250.58563   -346.43231    303.45197     11.55632   0.92364736   -17.856348   -224.20744   0.77902269   -17.787905    11.559546   0.92449848   -8.1780016   -224.19527   0.79491908   -7.8132286    207.05671   0.52336527   -16.822572    7.9971121   0.79223369   -468.27838 
 1004000    471.81806   -299.62666   -304.29363   -407.92624    303.87794    11.538332   0.92587472   -17.858876   -224.18949   0.82590811   -17.798726    11.538559    0.9217369   -8.1726667   -224.18061   0.82948498   -7.7894675    207.05014   0.54954023   -16.824088    7.9980035   0.79240406   -468.27821 
 1004100    471.81806   -343.62269   -328.46736   -378.56896    303.72603    11.526261   0.94009614   -17.878044   -224.17445   0.81715056   -17.805891    11.535178   0.95822029   -8.1902889   -224.17221   0.81233162   -7.7989119    207.04118   0.56837903    -16.82781    7.9988949   0.79257443   -468.27804 
 1004200    471.81806   -316.65761   -331.30139   -399.14705    303.73408      11.5067   0.93577035   -17.888574   -224.16812   0.82465866   -17.788849    11.518002   0.94493049   -8.2045781   -224.17801   0.81633305   -7.7959385    207.02915   0.58812575   -16.803846    7.9997863   0.79274481   -468.27787 
 1004300    471.81806   -320.03075   -298.12519   -399.01767    303.33753    11.513167    0.9465172    -17.88993    -224.1833   0.81211395   -17.775198    11.519629   0.97643033   -8.2123995   -224.20037   0.80154319   -7.7919144    207.00987   0.62588605   -16.788339    8.0006777   0.79291518    -468.2777 
 1004400    471.81806   -306.98171   -319.63402   -433.29501    303.47722    11.498393   0.95273926   -17.901457   -224.17384   0.81778119   -17.771307    11.520097   0.98538383    -8.222299   -224.19181   0.82585714   -7.7725441     207.0159   0.62291636    -16.80061    8.0015691   0.79308556   -468.27753 
 1004500    471.81806   -350.77923   -326.46627   -433.17276    303.91778    11.507486   0.95405492    -17.88535   -224.17983   0.81395917   -17.765759    11.519652   0.98238463   -8.2037993   -224.18751   0.82499341   -7.7414751    207.02545   0.61201291   -16.798246    8.0024605   0.79325593   -468.27736 
 1004600    471.81806   -338.13896   -345.68123   -432.61444    303.38045    11.498125   0.97748148   -17.884359   -224.15198   0.82104288   -17.791971    11.516532   0.99733943    -8.220543   -224.14458   0.84161806   -7.7596278     207.0188   0.63041496   -16.798841    8.0033519    0.7934263   -468.27719 
 1004700    471.81806   -373.51146   -337.94088   -450.88581    303.41739    11.515384   0.98054764   -17.899516   -224.14804   0.83285603   -17.784077     11.51558    0.9791468   -8.2435201   -224.13721   0.85354856    -7.767667    207.03691   0.64500924   -16.811656    8.0042434   0.79359668   -468.27702 
 1004800    471.81806   -362.14709   -395.19769   -458.63776    303.80484    11.510063   0.99916358   -17.865474   -224.15261   0.86940697   -17.816693    11.485189   0.99532543   -8.1829071   -224.13422   0.88036455   -7.7534655    207.05295   0.64718454   -16.835127    8.0051348   0.79376705   -468.27685 
 1004900    471.81806   -381.60571   -381.38792   -477.62119     304.0322    11.502496   0.99326041   -17.837535    -224.1399   0.84622429    -17.81139    11.465779   0.99059209   -8.1580008    -224.1229   0.86507237   -7.7519149    207.05366   0.66711882   -16.838062    8.0060262   0.79393743   -468.27668 
 1005000    471.81806   -346.03594    -355.8944   -480.63381     303.6902    11.504319   0.98202319   -17.862946   -224.14963   0.82893738   -17.777556    11.458736    0.9661852   -8.1783323   -224.13244    0.8504256   -7.7347854    207.05955   0.65806456    -16.83291    8.0069176    0.7941078   -468.27651 
Loop time of 12452 on 512 procs for 1000000 steps with 808706 atoms

Performance: 13.877 ns/day, 1.729 hours/ns, 80.308 timesteps/s
99.9% CPU use with 512 MPI tasks x no OpenMP threads

MPI task timing breakdown:
Section |  min time  |  avg time  |  max time  |%varavg| %total
---------------------------------------------------------------
Pair    | 3625.8     | 8075.9     | 8655.1     |1050.6 | 64.86
Neigh   | 0.050976   | 19.834     | 21.913     |  95.7 |  0.16
Comm    | 456.24     | 1292.6     | 3673.3     |1259.9 | 10.38
Output  | 7.0663     | 7.2023     | 7.9737     |   1.5 |  0.06
Modify  | 68.187     | 96.922     | 106.2      |  56.6 |  0.78
Other   |            | 2960       |            |       | 23.77

Nlocal:    1579.5 ave 1822 max 0 min
Histogram: 16 0 0 0 16 0 0 16 253 211
Nghost:    4568.5 ave 5131 max 245 min
Histogram: 16 0 0 0 16 4 12 0 54 410
Neighs:    110841 ave 128553 max 0 min
Histogram: 16 0 0 6 10 0 0 16 256 208

Total # of neighbors = 56750544
Ave neighs/atom = 70.1745
Neighbor list builds = 3365
Dangerous builds = 0



Total wall time: 3:32:50
