LAMMPS (16 Feb 2016)
# ------------------------ INITIALIZATION ----------------------------
echo both
#log		log.c
units           metal
dimension       3
boundary        p p p
atom_style      atomic
shell         mkdir  cfg
WARNING: Shell command 'mkdir' failed with error 'File exists' (../input.cpp:1126)
shell         mkdir  dump
WARNING: Shell command 'mkdir' failed with error 'File exists' (../input.cpp:1126)
variable      myT equal 50

# ----------------------- ATOM DEFINITION ----------------------------
lattice         fcc 4.024845358 #origin 0.0 0.0 0.0 orient x 1 -1 0 orient y 1 1 -2 orient z 1 1 1
Lattice spacing in x,y,z = 4.02485 4.02485 4.02485
variable        Lx equal 78
variable        Ly equal 2
variable        Lz equal 312
variable        boxLZ equal 322
region          SYSTEM block -${Lx} ${Lx} -${Ly} ${Ly} -${Lz} 0 units lattice
region          SYSTEM block -78 ${Lx} -${Ly} ${Ly} -${Lz} 0 units lattice
region          SYSTEM block -78 78 -${Ly} ${Ly} -${Lz} 0 units lattice
region          SYSTEM block -78 78 -2 ${Ly} -${Lz} 0 units lattice
region          SYSTEM block -78 78 -2 2 -${Lz} 0 units lattice
region          SYSTEM block -78 78 -2 2 -312 0 units lattice
region          BOX block -${Lx} ${Lx} -${Ly} ${Ly} -${boxLZ} 5 units lattice
region          BOX block -78 ${Lx} -${Ly} ${Ly} -${boxLZ} 5 units lattice
region          BOX block -78 78 -${Ly} ${Ly} -${boxLZ} 5 units lattice
region          BOX block -78 78 -2 ${Ly} -${boxLZ} 5 units lattice
region          BOX block -78 78 -2 2 -${boxLZ} 5 units lattice
region          BOX block -78 78 -2 2 -322 5 units lattice
create_box      1 BOX
Created orthogonal box = (-313.938 -8.04969 -1296) to (313.938 8.04969 20.1242)
  16 by 1 by 64 MPI processor grid
create_atoms    1 region SYSTEM
Created 780000 atoms

# ------------------------ FORCE FIELDS ------------------------------
pair_style      eam/alloy
pair_coeff  	  * * Al_wkg_MSMSE_2009.set Al


# ------------------------- SETTINGS ---------------------------------
thermo          100
thermo_style    custom step pe pxx pyy pzz lx ly lz vol temp

minimize      0  1e-12 100 10000
WARNING: Resetting reneighboring criteria during minimization (../min.cpp:168)
Neighbor list info ...
  1 neighbor list requests
  update every 1 steps, delay 0 steps, check yes
  max neighbors/atom: 2000, page size: 100000
  master list distance cutoff = 8.365
  ghost atom cutoff = 8.365
  binsize = 4.1825 -> bins = 151 4 315
Memory usage per processor = 0.0559502 Mbytes
Step PotEng Pxx Pyy Pzz Lx Ly Lz Volume Temp 
       0     -2062712   -180.20489   -180.20489    -39.57232    627.87588    16.099381    1316.1244     13303930            0 
     100     -2062713   -157.30242   -157.30242  -0.90698103    627.87588    16.099381    1316.1244     13303930            0 
Loop time of 1.70444 on 1024 procs for 100 steps with 780000 atoms

99.8% CPU use with 1024 MPI tasks x no OpenMP threads

Minimization stats:
  Stopping criterion = max iterations
  Energy initial, next-to-last, final = 
        -2062712.04006     -2062713.02879     -2062713.02879
  Force two-norm initial, final = 2.39158 0.00149093
  Force max component initial, final = 0.0381155 1.75258e-05
  Final line search alpha, max atom move = 1 1.75258e-05
  Iterations, force evaluations = 100 200

MPI task timing breakdown:
Section |  min time  |  avg time  |  max time  |%varavg| %total
---------------------------------------------------------------
Pair    | 7.391e-05  | 0.96248    | 1.189      |  16.6 | 56.47
Neigh   | 0          | 0          | 0          |   0.0 |  0.00
Comm    | 0.00010061 | 0.18971    | 0.75118    |  23.0 | 11.13
Output  | 0.00083113 | 0.00086777 | 0.00098395 |   0.0 |  0.05
Modify  | 0          | 0          | 0          |   0.0 |  0.00
Other   |            | 0.5514     |            |       | 32.35

Nlocal:    761.719 ave 880 max 0 min
Histogram: 48 0 0 0 0 0 0 0 384 592
Nghost:    3462.78 ave 3762 max 0 min
Histogram: 16 0 32 0 0 0 0 32 0 944
Neighs:    53191.1 ave 62544 max 0 min
Histogram: 48 0 0 0 0 0 0 8 680 288

Total # of neighbors = 54467712
Ave neighs/atom = 69.8304
Neighbor list builds = 0
Dangerous builds = 0

reset_timestep 0
timestep       0.002

# -------------------- Run MD NVT equilibration -------------------------
#dump          1 all custom 100 dump.atom id type x y z
dump          2 all cfg 100 cfg/*.cfg mass type xs ys zs
dump_modify   2 element Al


velocity       all create 300.0 4928459 mom yes rot yes dist gaussian

fix             1 all npt temp 300 300 0.1 iso 0.0 0.0 2
run      10000
Neighbor list info ...
  1 neighbor list requests
  update every 1 steps, delay 10 steps, check yes
  max neighbors/atom: 2000, page size: 100000
  master list distance cutoff = 8.365
  ghost atom cutoff = 8.365
  binsize = 4.1825 -> bins = 151 4 315
Memory usage per processor = 0.123506 Mbytes
Step PotEng Pxx Pyy Pzz Lx Ly Lz Volume Temp 
       0     -2062713    2270.3657    2273.3481    2425.9555    627.87588    16.099381    1316.1244     13303930          300 
     100   -2046689.2    1626.7659    1579.2441    1739.2155     629.8153     16.14911    1320.1898     13427593    157.69655 
     200   -2044759.3    432.06499    325.81832    547.80008    630.44778    16.165328    1321.5155     13468087    170.62104 
     300   -2042839.5     302.0566    263.48478     404.4235    630.75029    16.173084    1322.1497     13487484    190.16999 
     400   -2040392.4    389.48113    529.19414    462.10631    631.08474     16.18166    1322.8507     13508950    209.56784 
     500   -2038256.4    310.54941    250.83648    381.20511    631.45007    16.191027    1323.6165     13532424    235.31889 
     600   -2035675.2    371.13811    303.51151    438.24004    631.82434    16.200624     1324.401     13556501    257.22023 
     700   -2033429.8    268.87914    199.52121    330.64524    632.18918    16.209979    1325.1658     13579999     279.2944 
     800   -2031523.4    159.62198    182.99222     199.1566    632.50021    16.217954    1325.8177     13600052    296.23848 
     900   -2030408.2    11.671716    4.1164514    43.500439    632.69988    16.223074    1326.2363     13612936    303.27223 
    1000   -2030879.5   -154.14686   -175.58915   -124.37698    632.66899    16.222282    1326.1715     13610942    299.75686 
    1100   -2031302.8    83.934108    79.941424    90.896246    632.53577    16.218866    1325.8923     13602346    297.59403 
    1200   -2030829.2    41.175554  -0.57057701    11.214623     632.6252    16.221159    1326.0797     13608116    301.89739 
    1300   -2030708.9   -38.873599   -79.857244   -88.535511    632.65598    16.221948    1326.1443     13610102    300.51806 
    1400   -2031183.4       61.281    21.715936    -1.145473    632.55488    16.219356    1325.9324     13603579    298.19277 
    1500   -2030955.2    80.763869    73.322197    28.735469    632.57298     16.21982    1325.9703     13604747    300.05667 
    1600   -2030716.9   -24.784299   -72.923947   -99.198266    632.63676    16.221455     1326.104     13608862     301.3601 
    1700   -2031065.1    15.661769   0.23788239   -70.485573     632.5689    16.219715    1325.9617     13604483    299.15373 
    1800   -2031072.6    88.545144    85.415011   -3.4868967    632.54441    16.219088    1325.9104     13602904    299.24217 
    1900   -2030778.9    2.7757311   -9.4759787   -61.828954    632.61073    16.220788    1326.0494     13607182    301.21233 
    2000   -2030962.7   -25.179593   -41.529872   -109.49017    632.59218    16.220312    1326.0105     13605985    300.20703 
    2100   -2031119.2    75.425062    61.947713   -3.1091217     632.5377    16.218915    1325.8963     13602471    299.25993 
    2200   -2030852.9    36.690197    27.684004   -70.153411    632.58352     16.22009    1325.9924     13605427    300.53342 
    2300   -2030819.9     14.65872    -10.53595   -81.874744    632.58922    16.220236    1326.0043     13605794    300.12675 
    2400   -2031066.7    72.151083    50.794889   -54.243837    632.53792    16.218921    1325.8968     13602485    298.96602 
    2500   -2030958.9    54.223908    51.887048   -50.477731    632.55119    16.219261    1325.9246     13603341    300.13875 
    2600   -2030825.9    5.7735349   -7.7776637   -98.113257    632.58185    16.220047    1325.9889     13605319    300.72237 
    2700   -2031019.4    69.674323    37.353159   -105.54087    632.53919    16.218954    1325.8995     13602567    299.52673 
    2800   -2031007.8    82.440243     71.88267   -66.918447    632.52493    16.218588    1325.8696     13601646    299.70316 
    2900   -2030852.2     36.85206    16.291467   -133.24512    632.56185    16.219535     1325.947     13604029    300.60622 
    3000   -2030947.6    58.617253    53.362461   -110.68836    632.53719    16.218902    1325.8953     13602438    300.01949 
    3100     -2031023     75.09717    45.700024    -107.9525    632.52072     16.21848    1325.8607     13601375    299.41388 
    3200   -2030897.7    93.297119    54.491516   -101.14942    632.53729    16.218905    1325.8955     13602444     300.3114 
    3300   -2030908.8    34.975513   -1.5467655   -157.86269    632.54532    16.219111    1325.9123     13602962    300.42946 
    3400   -2031014.3    98.809103    85.741157   -84.621698    632.50271    16.218018     1325.823     13600213    299.42235 
    3500   -2030951.2    72.535854    38.538362   -140.70185    632.52305     16.21854    1325.8656     13601526    300.12738 
    3600   -2030867.3    78.637907    40.199095   -136.65751    632.53463    16.218837    1325.8899     13602272      300.403 
    3700   -2031009.7    67.428535     40.24465   -151.66489    632.51255    16.218271    1325.8436     13600848    299.83305 
    3800   -2030975.6    104.20764    95.984802   -111.98613    632.50167    16.217991    1325.8208     13600146    299.59834 
    3900   -2030907.5    48.697619    21.118115   -172.87011     632.5263    16.218623    1325.8724     13601735    300.82259 
    4000   -2030944.6    82.154189    62.884523   -174.24262    632.50596    16.218101    1325.8298     13600423    299.97608 
    4100   -2030961.1    127.30879    105.26429   -141.39149    632.48732    16.217624    1325.7907     13599221    299.06427 
    4200   -2030929.9    103.93885    55.540924   -172.04289    632.49884    16.217919    1325.8149     13599963    300.47274 
    4300   -2030939.8    81.264341    43.745034    -199.7984    632.50095    16.217973    1325.8193     13600100    300.53711 
    4400   -2031014.2    97.483284    84.059922   -158.82433    632.47525    16.217314    1325.7654     13598442    299.64136 
    4500   -2030962.1    93.157496    90.194717   -191.97402     632.4833    16.217521    1325.7823     13598961    300.19196 
    4600     -2030884    81.668102    75.928224    -179.8829    632.49272    16.217762    1325.8021     13599569    300.29182 
    4700   -2030989.3    102.64523     84.74736   -221.06496    632.47127    16.217212    1325.7571     13598186    299.87867 
    4800   -2030956.9    144.75323     132.7119   -186.74614    632.46254    16.216988    1325.7388     13597623    299.56888 
    4900   -2030922.2    84.463023    62.996205   -216.10704    632.48125    16.217468     1325.778     13598829     300.4713 
    5000   -2030973.6    121.26885    85.232468   -216.32324    632.46249    16.216987    1325.7387     13597619    300.08975 
    5100   -2030950.5    132.00422    133.09729   -198.54519    632.45328    16.216751    1325.7194     13597025    299.38858 
    5200   -2030879.5    142.76072    108.93156   -243.80571    632.46423    16.217032    1325.7423     13597731    300.03721 
    5300   -2030906.5     142.1834    113.65819   -235.46895    632.45421    16.216775    1325.7213     13597085    299.82104 
    5400   -2031001.4    157.54659    128.00546   -236.57613    632.43671    16.216326    1325.6846     13595956    299.73382 
    5500     -2030936    134.27036     106.3106   -263.32612    632.44705    16.216591    1325.7063     13596623    300.19348 
    5600   -2030930.7    115.49422     104.1495    -270.6528    632.44703    16.216591    1325.7063     13596622     300.5155 
    5700   -2030983.2    145.81559    122.89227   -269.93019    632.43098    16.216179    1325.6726     13595587    299.77615 
    5800   -2031002.2     143.2513    120.72869   -263.26372    632.42744    16.216088    1325.6652     13595359    300.25559 
    5900   -2030884.2     131.1384    117.07388   -282.95876     632.4414    16.216446    1325.6945     13596259    300.34782 
    6000   -2030952.6    136.79859    135.19154   -247.21996    632.42802    16.216103    1325.6664     13595396    299.89526 
    6100   -2030983.7    147.57883    141.56801   -263.54216    632.41728    16.215828    1325.6439     13594703    299.60748 
    6200   -2030897.4    152.72267    128.92381   -279.03137    632.42789      16.2161    1325.6661     13595387    300.18852 
    6300     -2030926    153.12014    119.46462   -323.06489     632.4204    16.215908    1325.6505     13594905    300.21484 
    6400   -2031000.8    186.39351    162.65906   -274.52636    632.39661    16.215298    1325.6006     13593371    299.66485 
    6500   -2030932.3    156.69218    138.10242   -332.34386    632.41167    16.215684    1325.6322     13594342     300.1453 
    6600   -2030892.3    168.72302     148.3965   -341.41915    632.40874    16.215609     1325.626     13594153    300.19499 
    6700     -2031040    151.52396    128.90478   -321.65197    632.39533    16.215265    1325.5979     13593288    300.15654 
    6800   -2030969.9    165.87588    135.39893   -328.14172    632.39905     16.21536    1325.6057     13593528    300.15459 
    6900   -2030903.5    143.37023    125.42141    -349.2877    632.40711    16.215567    1325.6226     13594047    300.54605 
    7000   -2030966.9    199.25938    152.61063   -321.92527    632.38147    16.214909    1325.5688     13592394    299.79282 
    7100   -2030979.2    190.03188    153.55564   -341.28012    632.37655    16.214783    1325.5585     13592077    299.73881 
    7200   -2030886.7    169.02152    163.36473    -350.2788       632.39    16.215128    1325.5867     13592944    300.20332 
    7300   -2030906.9    183.39116    161.95603   -335.40272     632.3857    16.215018    1325.5777     13592667     299.6706 
    7400   -2030989.5    206.32268    183.77933   -320.82011    632.36663    16.214529    1325.5377     13591437    299.61988 
    7500   -2030879.8    191.31006    180.12232    -361.7673    632.38116    16.214902    1325.5682     13592374    299.79793 
    7600   -2030928.6     167.4688     171.5135    -368.7732    632.37358    16.214707    1325.5523     13591885    300.39965 
    7700   -2030970.2    206.22586    194.26924   -342.03507    632.35433    16.214214     1325.512     13590644    299.40152 
    7800   -2030961.7    176.07242    190.86901   -377.77214    632.36114    16.214388    1325.5262     13591083    300.24654 
    7900   -2030895.2    177.57996    155.69096   -413.04885    632.37363    16.214708    1325.5524     13591888    300.32863 
    8000   -2030960.4    213.37851    185.01397    -369.0272    632.34846    16.214063    1325.4997     13590266     299.6705 
    8100   -2030979.5    219.10199    181.88494   -395.79267    632.34444     16.21396    1325.4912     13590006    299.87996 
    8200   -2030867.6     214.2893    203.05368   -396.25834     632.3541    16.214208    1325.5115     13590629    300.15752 
    8300   -2030978.4     195.4879    184.19867   -434.36298    632.34038    16.213856    1325.4827     13589744     300.1843 
    8400   -2030976.4      250.355    217.90177   -368.76552    632.32484    16.213457    1325.4501     13588743    299.46625 
    8500   -2030886.2    204.56126    186.64031   -443.45763    632.34709    16.214028    1325.4968     13590177    300.18204 
    8600   -2030932.3    230.37744    183.13426   -419.26061    632.33191    16.213639     1325.465     13589198    300.37367 
    8700   -2031017.4    208.40349    208.04876   -427.54134    632.31996    16.213332    1325.4399     13588428    299.66112 
    8800   -2030929.6    248.99553     227.3106    -403.8007    632.31954    16.213321     1325.439     13588401    299.96567 
    8900   -2030888.8    195.47032    138.92958   -469.24903    632.33866    16.213812    1325.4791     13589634    300.41242 
    9000   -2030974.9    278.13565    234.26209   -414.87506    632.30336    16.212907    1325.4051     13587358    299.75238 
    9100   -2030986.1    198.54325    196.90054   -460.85692    632.31707    16.213258    1325.4339     13588242    299.89458 
    9200     -2030875    242.20368    224.26206   -434.81926    632.31584    16.213227    1325.4313     13588163    300.28439 
    9300     -2030933    235.92285    212.87333   -477.84581    632.30846    16.213037    1325.4158     13587687    299.78592 
    9400   -2031008.4    262.79182    243.44676   -434.88156    632.28432    16.212419    1325.3652     13586131    299.83187 
    9500   -2030911.4     222.4557    184.15605   -498.28352    632.31003    16.213078    1325.4191     13587788    300.23775 
    9600   -2030917.8      262.202    222.71793     -468.211    632.29774    16.212763    1325.3933     13586996    300.28255 
    9700   -2030991.1    260.49476    220.37606   -478.19058    632.28306    16.212386    1325.3626     13586049     299.6127 
    9800   -2030960.6    270.62149     233.4308   -463.89509    632.27906    16.212284    1325.3542     13585792    300.20737 
    9900   -2030857.4    253.97383    219.67178   -499.20026    632.29686     16.21274    1325.3915     13586939    299.82719 
   10000   -2031003.3    291.46529    253.11675    -462.4392    632.27379    16.212148    1325.3431     13585452    300.21233 
Loop time of 114.638 on 1024 procs for 10000 steps with 780000 atoms

Performance: 15.074 ns/day, 1.592 hours/ns, 87.231 timesteps/s
99.9% CPU use with 1024 MPI tasks x no OpenMP threads

MPI task timing breakdown:
Section |  min time  |  avg time  |  max time  |%varavg| %total
---------------------------------------------------------------
Pair    | 0.0051939  | 42.256     | 48.068     | 102.7 | 36.86
Neigh   | 0.00021935 | 0.22948    | 0.27019    |  10.3 |  0.20
Comm    | 0.028513   | 7.9801     | 31.934     | 138.6 |  6.96
Output  | 24.231     | 24.237     | 24.246     |   0.0 | 21.14
Modify  | 31.812     | 38.626     | 88.897     | 105.4 | 33.69
Other   |            | 1.309      |            |       |  1.14

Nlocal:    761.719 ave 868 max 0 min
Histogram: 32 16 0 0 0 0 0 0 330 646
Nghost:    3422.32 ave 3720 max 0 min
Histogram: 16 0 6 26 0 0 0 22 10 944
Neighs:    53700.8 ave 62090 max 0 min
Histogram: 33 15 0 0 0 0 0 0 517 459

Total # of neighbors = 54989602
Ave neighs/atom = 70.4995
Neighbor list builds = 75
Dangerous builds = 0
unfix 1

fix            2 all nvt temp 300.0 300.0 0.1

run      10000
Memory usage per processor = 0.127319 Mbytes
Step PotEng Pxx Pyy Pzz Lx Ly Lz Volume Temp 
   10000   -2031003.3    291.46529    253.11675    -462.4392    632.27379    16.212148    1325.3431     13585452    300.21233 
   10100   -2030946.1    341.25709    311.90776   -364.69007    632.27379    16.212148    1325.3431     13585452    300.23188 
   10200     -2030935    401.65226    386.18412   -252.25973    632.27379    16.212148    1325.3431     13585452    300.20334 
   10300   -2030985.4    401.50607    361.46442   -231.80928    632.27379    16.212148    1325.3431     13585452    300.07252 
   10400   -2031028.6    362.04046    368.65215   -245.71973    632.27379    16.212148    1325.3431     13585452     300.3281 
   10500   -2030966.4     435.6608    424.21372   -159.52278    632.27379    16.212148    1325.3431     13585452    300.45422 
   10600   -2030983.5    423.23525    402.74328   -180.25896    632.27379    16.212148    1325.3431     13585452    299.62728 
   10700   -2031002.9    426.80322     422.5799   -183.11676    632.27379    16.212148    1325.3431     13585452    300.15506 
   10800     -2030969    447.57406     431.9254   -162.41326    632.27379    16.212148    1325.3431     13585452    300.24586 
   10900   -2030950.2    467.83581    452.19633   -145.12702    632.27379    16.212148    1325.3431     13585452    299.46137 
   11000   -2030988.6    461.48198    453.42402   -164.55187    632.27379    16.212148    1325.3431     13585452    299.64224 
   11100   -2030955.3    473.60134     455.5833   -135.07517    632.27379    16.212148    1325.3431     13585452    300.27265 
   11200   -2031008.9    458.23366    431.44049   -157.24182    632.27379    16.212148    1325.3431     13585452    300.30027 
   11300     -2030990    460.68604    436.45728   -127.00126    632.27379    16.212148    1325.3431     13585452    299.91881 
   11400     -2031026    427.32646    436.79532   -145.59766    632.27379    16.212148    1325.3431     13585452    299.75855 
   11500   -2031012.3    452.96607    448.13163   -130.72329    632.27379    16.212148    1325.3431     13585452    300.11698 
   11600   -2030968.4    481.36178    470.26023   -128.55685    632.27379    16.212148    1325.3431     13585452    299.95296 
   11700     -2030970    474.07429    471.25303    -123.6565    632.27379    16.212148    1325.3431     13585452    299.47567 
   11800   -2030999.9      461.957    441.41673   -130.14319    632.27379    16.212148    1325.3431     13585452    299.51076 
   11900   -2030956.1    476.27244    443.25543   -110.80895    632.27379    16.212148    1325.3431     13585452    299.93748 
   12000   -2030978.9    443.07011    430.20158   -153.09783    632.27379    16.212148    1325.3431     13585452    299.87009 
   12100   -2031013.4     434.7884    413.21843   -166.77644    632.27379    16.212148    1325.3431     13585452     299.5494 
   12200   -2030998.2    457.76412    425.43973   -178.96839    632.27379    16.212148    1325.3431     13585452    299.94161 
   12300   -2030990.9    449.41424    441.17638   -157.31626    632.27379    16.212148    1325.3431     13585452    300.31761 
   12400   -2030953.5    455.11791    432.10558   -132.87627    632.27379    16.212148    1325.3431     13585452    300.02211 
   12500   -2031011.6    446.23451    410.04034   -162.80586    632.27379    16.212148    1325.3431     13585452     299.7929 
   12600   -2030996.4    462.72746    427.05766   -151.46856    632.27379    16.212148    1325.3431     13585452    300.43103 
   12700   -2030953.6    472.20245    438.84934   -126.87905    632.27379    16.212148    1325.3431     13585452    299.80908 
   12800   -2030967.7    469.99942    420.94966   -123.46259    632.27379    16.212148    1325.3431     13585452     299.5757 
   12900   -2031054.9    434.85767    397.76432   -175.89404    632.27379    16.212148    1325.3431     13585452     299.7796 
   13000   -2030985.9    450.94419    438.23971   -138.80408    632.27379    16.212148    1325.3431     13585452    300.00677 
   13100     -2030973    465.97144    420.35277   -143.36854    632.27379    16.212148    1325.3431     13585452    299.90608 
   13200   -2031009.7    424.77481    385.08801   -167.75521    632.27379    16.212148    1325.3431     13585452    299.52255 
   13300   -2030958.5    475.40846    433.50276   -147.85244    632.27379    16.212148    1325.3431     13585452    299.88222 
   13400   -2030989.8    447.83138    419.15937   -174.87973    632.27379    16.212148    1325.3431     13585452    300.20407 
   13500   -2031026.9    409.54111    417.40868   -198.40994    632.27379    16.212148    1325.3431     13585452    299.82164 
   13600   -2030981.4    424.75068    415.91793   -176.51133    632.27379    16.212148    1325.3431     13585452    299.78133 
   13700   -2030982.2    450.02853    424.51919   -193.84208    632.27379    16.212148    1325.3431     13585452    300.16115 
   13800   -2030977.3    434.82169     417.4436   -181.25929    632.27379    16.212148    1325.3431     13585452    299.93913 
   13900   -2031002.1    420.55473    414.96259   -169.29566    632.27379    16.212148    1325.3431     13585452    299.63225 
   14000   -2030983.3    467.46849    429.16121   -136.92404    632.27379    16.212148    1325.3431     13585452    300.46007 
   14100     -2030988    457.11216    430.58788   -144.38219    632.27379    16.212148    1325.3431     13585452     299.9665 
   14200   -2030974.5    453.59254    431.11198   -127.54648    632.27379    16.212148    1325.3431     13585452    299.71909 
   14300   -2030977.3    474.14631    445.35624   -149.15671    632.27379    16.212148    1325.3431     13585452    300.52799 
   14400   -2031020.2    458.45571    427.23431   -147.22805    632.27379    16.212148    1325.3431     13585452     300.1939 
   14500   -2030989.3    457.45705    426.14391   -146.75025    632.27379    16.212148    1325.3431     13585452    299.74535 
   14600   -2030944.6     485.2831    451.54137   -80.234218    632.27379    16.212148    1325.3431     13585452    300.39517 
   14700     -2030994    471.30543    453.85868   -127.07308    632.27379    16.212148    1325.3431     13585452    300.16248 
   14800   -2031046.2    448.18002    423.53784   -143.45771    632.27379    16.212148    1325.3431     13585452    300.36947 
   14900   -2030985.1    468.58442     464.1596   -110.68463    632.27379    16.212148    1325.3431     13585452    300.02181 
   15000   -2030980.8    466.63625    458.14894   -93.927089    632.27379    16.212148    1325.3431     13585452    300.24985 
   15100   -2031012.9     488.8762     447.7943   -110.42379    632.27379    16.212148    1325.3431     13585452    299.71594 
   15200   -2030972.2    488.84777    475.09658   -77.457872    632.27379    16.212148    1325.3431     13585452    299.76865 
   15300   -2030975.2    505.80997     471.8059   -77.441726    632.27379    16.212148    1325.3431     13585452    299.88844 
   15400   -2030985.9    498.83003    469.84474    -84.11549    632.27379    16.212148    1325.3431     13585452    299.67458 
   15500   -2031055.1    466.82973    430.09538   -110.20506    632.27379    16.212148    1325.3431     13585452    299.70634 
   15600   -2030981.1    498.04336    479.34064   -76.750641    632.27379    16.212148    1325.3431     13585452    300.02796 
   15700   -2030991.8     515.7388    469.73562   -80.184383    632.27379    16.212148    1325.3431     13585452    299.86743 
   15800   -2031015.4     488.4408    471.89244   -92.593525    632.27379    16.212148    1325.3431     13585452    299.37733 
   15900   -2030947.8    530.95535     502.9568   -40.492626    632.27379    16.212148    1325.3431     13585452    299.84118 
   16000   -2031018.1     511.1147    486.38644   -46.059649    632.27379    16.212148    1325.3431     13585452    299.97212 
   16100   -2031006.7    511.41916    498.12339    -55.16733    632.27379    16.212148    1325.3431     13585452    299.77471 
   16200   -2030939.3    555.55461    523.78371    18.933858    632.27379    16.212148    1325.3431     13585452    300.28238 
   16300   -2030988.3    551.84119    513.01098   -5.2136926    632.27379    16.212148    1325.3431     13585452    299.97747 
   16400   -2031018.3    524.90301    507.53561    3.5781999    632.27379    16.212148    1325.3431     13585452    299.75996 
   16500   -2030989.9    558.16209    527.96054    8.7252667    632.27379    16.212148    1325.3431     13585452    300.36806 
   16600   -2031003.3    556.99626     528.0793   -3.5854656    632.27379    16.212148    1325.3431     13585452    300.12552 
   16700   -2031041.6    526.68413    498.61405     4.531941    632.27379    16.212148    1325.3431     13585452    300.11826 
   16800   -2031020.3    558.47423    502.03153    11.657081    632.27379    16.212148    1325.3431     13585452    300.38413 
   16900   -2031042.7    539.34223    530.73753    50.122326    632.27379    16.212148    1325.3431     13585452    300.87379 
   17000   -2031013.9    557.85707    553.59492    52.025079    632.27379    16.212148    1325.3431     13585452    299.72793 
   17100   -2031038.7    558.70144    531.94685    67.905203    632.27379    16.212148    1325.3431     13585452    300.35793 
   17200   -2031013.9    582.65056    546.55949    88.385553    632.27379    16.212148    1325.3431     13585452    300.44684 
   17300   -2031020.2    559.93917    559.28635    78.698616    632.27379    16.212148    1325.3431     13585452    299.51479 
   17400   -2031022.7    588.12171    554.71424    86.803851    632.27379    16.212148    1325.3431     13585452    300.29801 
   17500   -2031012.9    597.47388    568.62534    94.841479    632.27379    16.212148    1325.3431     13585452    300.22065 
   17600   -2031037.6    584.37852    572.38208    128.51948    632.27379    16.212148    1325.3431     13585452    299.87678 
   17700   -2031026.2    604.61043    586.64426    133.28596    632.27379    16.212148    1325.3431     13585452    300.02621 
   17800   -2031031.5    621.99016    611.13074     133.3488    632.27379    16.212148    1325.3431     13585452    300.56468 
   17900   -2031014.2    609.73083    598.27542    158.89036    632.27379    16.212148    1325.3431     13585452    299.55482 
   18000   -2031021.5    618.85601    590.96097    182.30649    632.27379    16.212148    1325.3431     13585452    299.84088 
   18100     -2031039    638.48668    624.16597    171.87458    632.27379    16.212148    1325.3431     13585452    301.00265 
   18200   -2031064.1    640.20602    599.91573     176.0559    632.27379    16.212148    1325.3431     13585452    300.18316 
   18300   -2031031.8    644.78349     624.6372    221.76734    632.27379    16.212148    1325.3431     13585452    299.85489 
   18400   -2031023.2    651.46201    611.19637    218.47981    632.27379    16.212148    1325.3431     13585452    300.18215 
   18500   -2031031.4    659.91714    631.44308    252.80173    632.27379    16.212148    1325.3431     13585452    299.57585 
   18600   -2031031.4    666.60743    669.59549    239.53209    632.27379    16.212148    1325.3431     13585452    299.49993 
   18700   -2031031.5    660.53254    673.44243    279.59559    632.27379    16.212148    1325.3431     13585452    300.23019 
   18800     -2031076    662.76853    647.79473    255.13969    632.27379    16.212148    1325.3431     13585452    299.89917 
   18900   -2031052.7      665.872     665.9523    313.81057    632.27379    16.212148    1325.3431     13585452    300.11069 
   19000   -2031005.1    723.45226    683.97085    334.64576    632.27379    16.212148    1325.3431     13585452    300.12903 
   19100   -2031075.1    678.84083     667.3529    312.54636    632.27379    16.212148    1325.3431     13585452    299.99949 
   19200   -2031039.1    695.22071    684.57097    327.73174    632.27379    16.212148    1325.3431     13585452    299.71196 
   19300   -2031013.9    743.90963     709.4306    390.36738    632.27379    16.212148    1325.3431     13585452    300.22241 
   19400   -2031043.5    708.90599    720.68877    373.68065    632.27379    16.212148    1325.3431     13585452    299.59297 
   19500   -2031059.6    743.85145    682.97345    371.83591    632.27379    16.212148    1325.3431     13585452    299.92855 
   19600   -2031041.3    752.49355    708.39416    404.69974    632.27379    16.212148    1325.3431     13585452     300.5732 
   19700   -2031060.2    756.09234    736.32974    413.93484    632.27379    16.212148    1325.3431     13585452     299.7536 
   19800   -2031093.7    762.29483    729.58926    419.53713    632.27379    16.212148    1325.3431     13585452    300.07487 
   19900   -2031079.8    745.27966    744.18045    427.41794    632.27379    16.212148    1325.3431     13585452    300.63187 
   20000   -2031062.6    719.61437    726.24137    354.01778    632.27379    16.212148    1325.3431     13585452    299.31015 
Loop time of 105.201 on 1024 procs for 10000 steps with 780000 atoms

Performance: 16.426 ns/day, 1.461 hours/ns, 95.056 timesteps/s
99.9% CPU use with 1024 MPI tasks x no OpenMP threads

MPI task timing breakdown:
Section |  min time  |  avg time  |  max time  |%varavg| %total
---------------------------------------------------------------
Pair    | 0.004246   | 41.563     | 48.3       | 101.5 | 39.51
Neigh   | 9.9421e-05 | 0.088084   | 0.10573    |   6.4 |  0.08
Comm    | 0.013804   | 8.0966     | 31.748     | 136.9 |  7.70
Output  | 20.871     | 20.889     | 20.893     |   0.0 | 19.86
Modify  | 20.648     | 26.825     | 76.593     | 125.0 | 25.50
Other   |            | 7.739      |            |       |  7.36

Nlocal:    761.719 ave 872 max 0 min
Histogram: 48 0 0 0 0 0 0 0 433 543
Nghost:    3431.02 ave 3732 max 0 min
Histogram: 16 0 24 8 0 0 0 30 2 944
Neighs:    53723.6 ave 62671 max 0 min
Histogram: 48 0 0 0 0 0 0 0 657 319

Total # of neighbors = 55012921
Ave neighs/atom = 70.5294
Neighbor list builds = 29
Dangerous builds = 0
reset_timestep 0
unfix 2

##---------------------------laser
#---------------------- DEFINE Laser GERION and GROUP ----------------
region       R1  block -75  75  INF  INF  INF  5  units box
group        G1 region R1
185112 atoms in group G1
group        G2 subtract all G1
594888 atoms in group G2


#define     temperature/pressure calculation  group
variable    x1atom atom "x>=0  &&  x<4 &&  z>-40 && z<1"     ##NEW!!!!!!!!!!!!
variable    x2atom atom "x>=-313.94  &&  x<-309.94 &&  z>-40 && z<1"
variable    x3atom atom "x>=0  &&  x<4 &&  z>-20 && z<1"
variable    x4atom atom "x>=-313.94  &&  x<-309.94 &&  z>-20 && z<1"
variable    x5atom atom "x>=196  &&  x<200 &&  z>-40 && z<1"

group       x1atom variable x1atom
141 atoms in group x1atom
group       x2atom variable x2atom
153 atoms in group x2atom
group       x3atom variable x3atom
68 atoms in group x3atom
group       x4atom variable x4atom
75 atoms in group x4atom
group       x5atom variable x5atom
165 atoms in group x5atom


compute      COM1x x1atom com
compute      COM2x x2atom com
compute      COM3x x3atom com
compute      COM4x x4atom com
compute      COM5x x5atom com

compute      COMall all com

#Temperature profile
#variable      Tprofile atom 300*(1+(step/5000)*2.5*exp(z/40))
variable      Tprofile atom 300*(1+(step/5000)*2.5*exp(z/75))

# ------------------------- SETTINGS ---------------------------------
thermo          100
thermo_style    custom step lx pxx pyy pzz temp c_COM1x[1] c_COM1x[2] c_COM1x[3] c_COM2x[1] c_COM2x[2] c_COM2x[3] c_COM3x[1] c_COM3x[2] c_COM3x[3] c_COM4x[1] c_COM4x[2] c_COM4x[3]  c_COM5x[1] c_COM5x[2] c_COM5x[3] c_COMall[1] c_COMall[2] c_COMall[3]

timestep       0.002


compute dispall all displace/atom

# ---------------- Run Laser Material Interaction --------------------
#dump          1 all custom 1000 dump/z1dump.atom id type x y z c_dispall[1]  c_dispall[2]  c_dispall[3] c_dispall[4]
#dump          2 all cfg 100 cfg/*.cfg mass type xs ys zs
#dump_modify   2 element Al

#relax for 2 PS
#fix           1 all nvt temp 300.0 300.0 0.1
#run  1000
#unfix         1

fix           1  all nve
fix           3temp  G1  langevin  v_Tprofile  0  0.1  378411   #TEST ALL
run           5000
Memory usage per processor = 0.127479 Mbytes
Step Lx Pxx Pyy Pzz Temp COM1x[1] COM1x[2] COM1x[3] COM2x[1] COM2x[2] COM2x[3] COM3x[1] COM3x[2] COM3x[3] COM4x[1] COM4x[2] COM4x[3] COM5x[1] COM5x[2] COM5x[3] COMall[1 COMall[2 COMall[3 
       0    632.27379    719.61437    726.24137    354.01778    299.31015    1.9214745   -1.0315497   -20.654978   -311.23074   -1.2598284   -20.054938     2.144486   -1.1833341   -10.362725   -311.18191   -1.0707448    -9.860773    197.56712   -1.1353386   -19.600867   -1.0132593   -1.0132593    -627.8054 
     100    632.27379    633.82749    646.35091    253.87605    300.02754    1.9344232   -1.0096532   -20.654533   -311.24753   -1.2455593   -20.049861      2.12876   -1.1189152   -10.341998   -311.18499   -1.1102944   -9.8449032    197.56258   -1.1519624   -19.559739   -1.0135119   -1.0125938   -627.80582 
     200    632.27379    650.10525    636.78109     286.0301      299.834    1.9471114   -1.0209457   -20.665129   -311.20835   -1.2627154   -20.048707     2.177425   -1.1562146   -10.357511   -311.19292   -1.1006212   -9.8507609     197.5786   -1.1071338   -19.471656   -1.0138887   -1.0119408   -627.80617 
     300    632.27379    688.40486    670.16795    257.15872    300.09357    1.9594338   -1.0265638   -20.633271    -311.2257    -1.242976   -20.011023    2.1768861    -1.191058   -10.353301   -311.15678   -1.0733699   -9.8503127    197.57011   -1.0765741    -19.42036   -1.0140606   -1.0115739   -627.80717 
     400    632.27379    702.12054    678.32825    266.71414    300.33095     1.937023   -1.0426521   -20.649396   -311.24141   -1.2248909   -19.973614    2.1856343   -1.1967472   -10.313792   -311.17766   -1.0735971   -9.8448807    197.59314   -1.0457777   -19.411172   -1.0142613    -1.010774   -627.80764 
     500    632.27379    674.69519    677.86405    245.50329    300.71656    1.9591617   -1.0105839   -20.630212   -311.25649   -1.2441812   -19.976493    2.2064138   -1.1605563   -10.303536   -311.18598   -1.0885792   -9.8275014    197.55986   -1.0107237    -19.37615   -1.0143829   -1.0099437   -627.80767 
     600    632.27379    682.34008    655.54779     243.8174    301.11493      1.98695  -0.95964647    -20.63281   -311.27115   -1.2309804   -20.004813    2.1995063    -1.137613   -10.334263   -311.26273   -1.0844936   -9.8930134     197.5371  -0.92835394   -19.409959   -1.0144057   -1.0095152   -627.80797 
     700    632.27379    706.95575    699.16667    243.83954    300.88944    1.9764508   -1.0129978   -20.608023   -311.25969   -1.2495972   -19.983048    2.1952697   -1.1684783   -10.307412    -311.2751   -1.0355352   -9.8088109     197.4998  -0.95649223   -19.400073   -1.0143478   -1.0090019   -627.80866 
     800    632.27379    721.97126    697.18828    260.17391     301.2517    1.9628072  -0.98061717   -20.655204   -311.29299   -1.2484541   -19.969543    2.1921705    -1.104219   -10.296322   -311.25797   -1.0276454   -9.7538766    197.52568  -0.87906541   -19.360752   -1.0136986   -1.0081041   -627.80922 
     900    632.27379    698.52577    686.55927    264.21728    301.48479    1.9659995  -0.98085992    -20.61031   -311.30222   -1.2947594   -19.964042    2.2112423   -1.1036609    -10.30122    -311.2572   -1.0919534   -9.7409881    197.52294  -0.90583715   -19.332383   -1.0131235   -1.0068108   -627.80945 
    1000    632.27379     720.5331    701.55411    283.90612    301.93413    1.9422984   -1.0153156   -20.626071   -311.32305   -1.3154671   -19.976415    2.1847092   -1.1701188    -10.32911   -311.25537   -1.1310557   -9.8225458    197.50117  -0.88385968    -19.29853   -1.0127105   -1.0060758   -627.80983 
    1100    632.27379    755.29854    728.80044     298.1291    301.84734    1.9695917   -1.0310309   -20.618652   -311.37274   -1.3007074    -20.05015    2.1793308   -1.2242869   -10.315007    -311.3277   -1.1890163     -9.94057    197.50173  -0.83801089   -19.283615   -1.0122374   -1.0057963   -627.81006 
    1200    632.27379    751.84233    713.17128    295.77227    302.20429    1.9453432   -1.0497276   -20.592357   -311.36731   -1.2675348    -20.07922    2.1834409   -1.2417023    -10.26274   -311.27636   -1.1124651   -9.9103137    197.46626  -0.78351794   -19.297945   -1.0116047    -1.004748   -627.81024 
    1300    632.27379    759.12103    709.29929     291.0282    302.55034    1.9220555   -1.0274149   -20.637887   -311.35623   -1.2542523   -20.034358    2.1585727   -1.1961669   -10.352623   -311.29262   -1.0678503   -9.9284142    197.49662  -0.80862449   -19.278513   -1.0108136   -1.0038524   -627.81032 
    1400    632.27379    751.49533     738.6379    297.03433    303.26492    1.9682613    -1.082609   -20.614276   -311.36013   -1.2028893   -19.992189     2.186812   -1.2771399   -10.257741   -311.34828   -1.0399552    -9.861932    197.49498  -0.81357869   -19.273336    -1.010121   -1.0030895   -627.81075 
    1500    632.27379     797.6007    767.23889    299.52611    302.61578    1.9713578   -1.0626296   -20.622968   -311.34972    -1.219271   -19.958216    2.1924024    -1.225408     -10.2803   -311.31643   -1.0417259    -9.786169    197.52338  -0.79432869   -19.344172   -1.0089373   -1.0024232   -627.81115 
    1600    632.27379    793.30454    758.74255     348.5975    303.19393    1.9583469   -1.0147565   -20.646881   -311.32864   -1.1582482   -19.902608    2.1837957   -1.1499585   -10.278108   -311.31004   -1.0056595   -9.7395288    197.49635  -0.80523709   -19.387491   -1.0083754   -1.0016802   -627.81171 
    1700    632.27379    823.72967    768.96418    344.26058    303.17227    1.9912593   -1.0250316   -20.661811   -311.33202   -1.1574933   -19.948614    2.1702166   -1.1750373   -10.336062   -311.27734  -0.97893746   -9.7686193    197.53607  -0.81409331   -19.456136   -1.0079314   -1.0007601    -627.8128 
    1800    632.27379    843.96179    805.12675    362.42156    304.19708    2.0011953   -1.0405131   -20.668459   -311.32667    -1.140791   -19.974368    2.1959467   -1.1557193   -10.319142   -311.28352   -0.9334958   -9.7973781    197.51951  -0.85356134   -19.442245   -1.0075606  -0.99994513   -627.81336 
    1900    632.27379    850.63162    817.28829    396.76174     304.1555    1.9796755   -1.0378028   -20.645993   -311.33402   -1.1375526   -19.977278    2.1813464   -1.1568579   -10.257877   -311.31359  -0.92170628   -9.8022207    197.50985  -0.79302638   -19.459989   -1.0076586  -0.99929165   -627.81387 
    2000    632.27379    854.05932    860.66188     382.8512    304.34935    1.9411475   -1.0557142     -20.6033   -311.28866   -1.1057714   -20.014673    2.1885659   -1.1553045   -10.242656   -311.23917  -0.95358454   -9.8760805    197.52037  -0.78262465   -19.468093   -1.0074989  -0.99848105   -627.81488 
    2100    632.27379    880.62011     848.3694    389.54431    305.13035    1.9241665   -1.0057519    -20.61066   -311.28494   -1.0900067   -20.015398    2.1661686   -1.1054264   -10.252656   -311.20194  -0.91118698   -9.8919272    197.58248  -0.79085112   -19.529335   -1.0073675  -0.99791513    -627.8164 
    2200    632.27379    883.63015    861.60987    419.38524     304.6059    1.9689712   -1.0468613   -20.648975   -311.29794    -1.058811   -20.003696    2.2299105   -1.1593713   -10.315984   -311.19516  -0.90628487    -9.896489    197.59602  -0.78806021   -19.492184   -1.0072712  -0.99723447   -627.81752 
    2300    632.27379    882.24206    886.09417    411.31645    305.29695    1.9629727   -1.0484713   -20.688982   -311.29012   -1.0545131   -19.975474    2.1895602   -1.1264024   -10.334008   -311.21786  -0.92102671   -9.8133464    197.63662  -0.79496508   -19.418737   -1.0069054  -0.99617446   -627.81816 
    2400    632.27379    891.88768    886.49321    407.85268    305.59043    1.9719141   -1.0210016   -20.606624   -311.28021   -1.0419069   -19.953196    2.2124543   -1.1310349    -10.19374   -311.19904  -0.82874648   -9.7899893    197.67971  -0.79729481    -19.44372   -1.0068857  -0.99535893     -627.819 
    2500    632.27379    940.40832    867.10157    414.69813    306.44789    1.9640694   -1.0422888    -20.59186   -311.27805   -1.0130989   -19.969285    2.2270702   -1.1415632   -10.176935    -311.2142  -0.83539707   -9.8199554    197.68683  -0.71038162   -19.474221    -1.006761  -0.99505069   -627.81956 
    2600    632.27379    962.32451     919.5149     440.4945    306.58778    1.9763431    -1.058934   -20.579176   -311.27505  -0.97303922   -19.975551     2.220954   -1.1109239   -10.158655   -311.21754  -0.80772723   -9.8107349    197.73122  -0.75880183   -19.466163   -1.0066037  -0.99477042   -627.82057 
    2700    632.27379     954.5268    923.52656    459.20233    306.65419    1.9537257   -1.0223347   -20.524319   -311.23989  -0.94828905   -20.002988    2.2254528   -1.0926357   -10.074177   -311.20903  -0.76082174   -9.8642499    197.77704  -0.76706795   -19.504751   -1.0066387   -0.9945295   -627.82181 
    2800    632.27379    977.03086    956.10751     468.4393    306.48447    1.9137736   -1.0030923   -20.478873   -311.21487   -1.0185054   -19.950627     2.164969   -1.1185126   -10.044043   -311.17927  -0.78562861   -9.8155807     197.8011   -0.7609004    -19.46952   -1.0069262  -0.99421968   -627.82279 
    2900    632.27379     994.7203    943.62602    480.08822    307.00105    1.9228597  -0.94568406   -20.464669   -311.24571  -0.98056919   -19.954353     2.206527   -1.0639222   -10.034465   -311.19382  -0.77630954     -9.77948     197.8109  -0.79293017   -19.487714    -1.006811  -0.99351883   -627.82379 
    3000    632.27379    984.27195     943.5765    476.96911    307.46176    1.9323532  -0.97526088   -20.465014   -311.18138  -0.93929311   -19.935121    2.1277943   -1.0988372   -10.033557   -311.14645  -0.73744366   -9.7580251    197.84198   -0.7975428   -19.530121   -1.0072186  -0.99250233    -627.8248 
    3100    632.27379    1012.7892     1000.307    492.94222    307.43443    1.9448527  -0.94607964   -20.423702   -311.18973  -0.88054572   -19.858005    2.1331381    -1.124033   -9.9789251   -311.16351  -0.69554733   -9.6501928    197.86851  -0.80120295   -19.562353   -1.0075029  -0.99165367   -627.82544 
    3200    632.27379    995.77889      999.526    495.93346    308.07335    2.0111971  -0.96034141    -20.38782    -311.1764  -0.92747733   -19.846631    2.1768233   -1.1285354   -9.9136569   -311.10385   -0.7545566   -9.6490294    197.91099  -0.82941442   -19.531127   -1.0073792  -0.99075254   -627.82626 
    3300    632.27379    1044.3672    989.23439    521.12511    308.06563    1.9935534   -1.0270925   -20.379318   -311.18457  -0.94554769   -19.847739    2.1703195   -1.2248658   -9.9618228   -311.10694  -0.79688241   -9.6364128    197.94208  -0.87177566   -19.500812   -1.0076794  -0.99000336   -627.82734 
    3400    632.27379    1035.3167    997.82593    546.34398    308.62789    2.0072784   -1.0245326   -20.348916    -311.2136  -0.94506657   -19.817421    2.1675078   -1.1890839   -9.8586501   -311.08815  -0.74462749    -9.644608    197.95218  -0.87049979    -19.47006   -1.0077306  -0.98942572   -627.82814 
    3500    632.27379    1070.0849    1059.6328    574.11208    308.50542    1.9684742  -0.99287588   -20.339126   -311.21892  -0.98348241   -19.874253    2.1480779   -1.1388095   -9.8125562   -311.10338  -0.79878681   -9.7409543    197.95717  -0.89676754   -19.471344   -1.0077806  -0.98853716   -627.82899 
    3600    632.27379    1136.2278    1074.3116    568.07151    309.22933    2.0553058  -0.99661396   -20.392616   -311.19053  -0.96243569   -19.896134    2.3065414    -1.103322   -9.9170181   -311.05695  -0.79400391   -9.7428951    197.98295  -0.90965541   -19.506581   -1.0073075  -0.98747914   -627.82994 
    3700    632.27379    1108.4344    1069.4199    566.95957    309.38774    2.0768588  -0.99254849   -20.443634   -311.16498  -0.97884048   -19.890538    2.3357037   -1.1619038   -9.9792659   -311.11748  -0.83975006   -9.7636556    197.94878  -0.88076121   -19.460264   -1.0068545  -0.98640993   -627.83092 
    3800    632.27379    1134.8833    1078.3513    591.31632    309.85354    2.1012029   -0.9599234   -20.396745   -311.16809  -0.94955292   -19.911771    2.3254375   -1.1337515   -9.8540558   -311.14184  -0.80221405    -9.725777    197.94186  -0.88169385   -19.448124   -1.0065491  -0.98563049   -627.83137 
    3900    632.27379    1129.8883    1083.5249    583.47936    310.17009     2.073997   -0.9196202   -20.347111   -311.16482  -0.96630732   -19.914355     2.320439   -1.0019313   -9.8651355   -311.13294  -0.73679699   -9.7386181    197.94942  -0.89924048   -19.436814   -1.0065946  -0.98478687     -627.832 
    4000    632.27379    1132.7868    1069.0111    570.25612    310.20745    2.0583399  -0.94535304   -20.360567   -311.14308  -0.92715752   -19.923806    2.2276989   -1.0878024   -9.8304966   -311.08141  -0.70938109   -9.7423147     197.9565  -0.92561835    -19.46413    -1.006292  -0.98432526   -627.83249 
    4100    632.27379    1146.4598    1103.3785    585.66783    310.56042    2.0398927  -0.93924896   -20.342506   -311.19839   -0.9307734   -19.974173    2.2449799   -1.1427542   -9.8646049   -311.16709    -0.724302     -9.81531    197.93628  -0.91657193   -19.473277   -1.0057392  -0.98373307   -627.83318 
    4200    632.27379    1145.1781    1095.6432    608.49603    311.26846    2.1046038  -0.97792374   -20.305221   -311.23704  -0.92350228   -19.999787    2.3130624   -1.1515569   -9.7719904   -311.21232  -0.75871187    -9.810407    197.90959  -0.96312654   -19.493128   -1.0053994  -0.98339961   -627.83387 
    4300    632.27379    1183.0413    1123.3204    629.46893     311.5317    2.1081414  -0.93898369   -20.299731   -311.20583  -0.90836028   -20.027183    2.2963979   -1.1036483   -9.8021603   -311.16885  -0.76948717    -9.868742    197.89465    -0.997806   -19.478266   -1.0049123  -0.98253037   -627.83461 
    4400    632.27379    1181.4527    1140.4645      635.344    311.49711    2.0846162  -0.97663012   -20.323015   -311.19237   -0.9192851    -20.03377    2.3141342   -1.1029514   -9.8476656   -311.12243  -0.78275742   -9.8878014    197.87342  -0.93149719   -19.444003   -1.0045995  -0.98198764   -627.83597 
    4500    632.27379    1194.6939    1137.2903    630.60799    312.30551     2.098401   -1.0470526   -20.257976   -311.20913   -1.0057073   -19.997693    2.3239644   -1.1896468   -9.8278195   -311.12526  -0.86468694   -9.8529768    197.87517  -0.92203109      -19.374   -1.0047194  -0.98181829   -627.83725 
    4600    632.27379    1206.2982    1147.1965    654.79605    312.72772    2.0934718    -1.043954   -20.199164   -311.23421   -1.0572337   -20.012004    2.3182618   -1.2024809    -9.786941   -311.16543  -0.86591423   -9.8628364    197.90303  -0.94958543   -19.437074   -1.0043406  -0.98153293   -627.83868 
    4700    632.27379    1222.4963    1192.3524    681.72988    312.61223    2.0478747   -1.0522006    -20.16543   -311.23234   -1.0473321   -20.001778    2.3198679   -1.1936058   -9.7765095   -311.13292   -0.8480204   -9.8422349     197.8935   -0.9943764   -19.478559   -1.0042716  -0.98159252   -627.84009 
    4800    632.27379    1246.1174    1214.2278    685.92039    313.02342    2.0571374   -1.0613568   -20.216493   -311.27134   -1.0596264    -20.05895     2.311556   -1.2097629   -9.7663553   -311.19153  -0.86106342   -9.8387806    197.94305  -0.94961027   -19.444427    -1.004238  -0.98168207   -627.84136 
    4900    632.27379    1240.3949    1180.6815    656.65751    313.42662    2.0412618  -0.95514646   -20.212482   -311.28422   -1.0485891   -20.005203    2.2870602   -1.0305822   -9.6893288   -311.23327  -0.86053928   -9.8512819     197.9696  -0.92125124   -19.447121   -1.0040204  -0.98141638   -627.84267 
    5000    632.27379    1249.3007    1204.4674    670.37793    313.74841    2.0068728   -0.9670252   -20.213286    -311.2735   -1.0828186   -19.996885    2.1760771    -1.033379   -9.6732883   -311.19738  -0.91830153   -9.8634683    197.96987  -0.98760236   -19.431353   -1.0042275  -0.98170001   -627.84364 
Loop time of 52.968 on 1024 procs for 5000 steps with 780000 atoms

Performance: 16.312 ns/day, 1.471 hours/ns, 94.397 timesteps/s
99.9% CPU use with 1024 MPI tasks x no OpenMP threads

MPI task timing breakdown:
Section |  min time  |  avg time  |  max time  |%varavg| %total
---------------------------------------------------------------
Pair    | 0.0020514  | 21.769     | 25.22      |  72.3 | 41.10
Neigh   | 0.00027227 | 0.37067    | 0.45759    |  13.4 |  0.70
Comm    | 0.039412   | 5.2432     | 16.479     |  85.1 |  9.90
Output  | 10.834     | 11.12      | 11.887     |   5.3 | 20.99
Modify  | 0.030793   | 0.35597    | 1.0384     |  52.6 |  0.67
Other   |            | 14.11      |            |       | 26.64

Nlocal:    761.719 ave 878 max 0 min
Histogram: 44 4 0 0 0 0 0 0 535 441
Nghost:    3423.01 ave 3719 max 0 min
Histogram: 16 0 11 21 0 0 0 32 1 943
Neighs:    53744.8 ave 62837 max 0 min
Histogram: 48 0 0 0 0 0 0 2 658 316

Total # of neighbors = 55034709
Ave neighs/atom = 70.5573
Neighbor list builds = 121
Dangerous builds = 0


variable  com1_x equal "c_COM1x[1]"
variable  com1_y equal "c_COM1x[2]"
variable  com1_z equal "c_COM1x[3]"
variable  com2_x equal "c_COM2x[1]"
variable  com2_y equal "c_COM2x[2]"
variable  com2_z equal "c_COM2x[3]"
variable  com3_x equal "c_COM3x[1]"
variable  com3_y equal "c_COM3x[2]"
variable  com3_z equal "c_COM3x[3]"
variable  com4_x equal "c_COM4x[1]"
variable  com4_y equal "c_COM4x[2]"
variable  com4_z equal "c_COM4x[3]"
variable  com5_x equal "c_COM5x[1]"
variable  com5_y equal "c_COM5x[2]"
variable  com5_z equal "c_COM5x[3]"
variable  comall_x equal "c_COMall[1]"
variable  comall_y equal "c_COMall[2]"
variable  comall_z equal "c_COMall[3]"


fix          2 all print 100 "${com1_x}   ${com1_y}   ${com1_z}  ${com2_x}   ${com2_y}   ${com2_z} ${com3_x}   ${com3_y}   ${com3_z} ${com4_x}   ${com4_y}   ${com4_z} ${com5_x}   ${com5_y}   ${com5_z} ${comall_x}   ${comall_y}   ${comall_z}" file COM.data screen no
#-------------------------- Wave Propagation -------------------------
unfix        3temp
run          1000000
Memory usage per processor = 0.127733 Mbytes
Step Lx Pxx Pyy Pzz Temp COM1x[1] COM1x[2] COM1x[3] COM2x[1] COM2x[2] COM2x[3] COM3x[1] COM3x[2] COM3x[3] COM4x[1] COM4x[2] COM4x[3] COM5x[1] COM5x[2] COM5x[3] COMall[1 COMall[2 COMall[3 
    5000    632.27379    1249.3007    1204.4674    670.37793    313.74841    2.0068728   -0.9670252   -20.213286    -311.2735   -1.0828186   -19.996885    2.1760771    -1.033379   -9.6732883   -311.19738  -0.91830153   -9.8634683    197.96987  -0.98760236   -19.431353   -1.0042275  -0.98170001   -627.84364 
    5100    632.27379    1221.1968    1198.3062    668.41664    313.62696    2.0687839   -1.0227295    -20.21598   -311.28575   -1.0859409   -20.046823    2.3539876   -1.0848806   -9.6720927   -311.28057  -0.92288294   -9.8878672    197.96303  -0.99600185   -19.344727   -1.0047637  -0.98228274   -627.84482 
    5200    632.27379    1234.7783    1157.8064    621.92202    313.54346    2.1110621   -1.1038019   -20.082493   -311.32065   -1.0992944   -20.042103    2.3901333   -1.2338457   -9.5383278   -311.30022  -0.90818232   -9.8574056    198.00577  -0.95202153   -19.363864      -1.0053  -0.98286548     -627.846 
    5300    632.27379     1198.161    1153.2054    603.01323    313.44568    2.0151303   -1.0481787   -20.075379   -311.28651   -1.1089565   -20.054744    2.2649176   -1.2376774   -9.4502845   -311.25601  -0.92419954    -9.846051    198.03514  -0.95429348    -19.36716   -1.0058363  -0.98344822   -627.84718 
    5400    632.27379     1202.275    1148.4957    564.47459     313.4096    2.0196581    -1.045873   -19.888328   -311.30472   -1.0963334   -20.037142    2.2147276   -1.1940453   -9.2046644   -311.27284  -0.96041661   -9.8784484    198.07056  -0.91492121    -19.41248   -1.0063725  -0.98403096   -627.84836 
    5500    632.27379    1201.9532    1114.1981    541.89684    313.44351    1.9355911   -1.0524881   -19.808392   -311.30619   -1.1673731   -20.040049    2.1190232   -1.1733558   -9.0891793   -311.29753  -0.99678191   -9.8812259    198.10512  -0.90025414   -19.438888   -1.0069088   -0.9846137   -627.84954 
    5600    632.27379    1177.6412    1092.0682    517.82398    313.82602    1.8882368   -1.0121117   -19.657556   -311.30817   -1.1282279   -20.025687    2.0559948   -1.1884434   -8.9859825   -311.26098  -0.94151032   -9.8299517    198.11417  -0.91954136   -19.443572   -1.0074451  -0.98519644   -627.85073 
    5700    632.27379    1169.7372    1081.8696    489.25058    313.19491    1.9125842  -0.93935058   -19.607076   -311.29793   -1.1586293   -20.053652    2.1558082   -1.0414793   -8.9376189   -311.27709  -0.97450214   -9.9085735    198.11298  -0.94268762   -19.479465   -1.0079813  -0.98577918   -627.85191 
    5800    632.27379    1156.6113    1068.3506     471.0649    313.35661    1.8573957  -0.94595818   -19.526719   -311.24956   -1.1907962   -20.112741    2.1418785    -1.069971   -8.8356749   -311.22828   -1.0383038    -9.966448    198.10717  -0.90824648   -19.522646   -1.0085176  -0.98636192   -627.85309 
    5900    632.27379    1156.2757     1065.431    454.20266    313.08608    1.8922712  -0.89892306   -19.416922   -311.29268   -1.2378153   -20.124676    2.0988531   -1.0764921   -8.7693101    -311.1611    -1.073843    -9.915026    198.11384  -0.86390558   -19.518458   -1.0090539  -0.98694465   -627.85427 
    6000    632.27379    1135.0985     1065.607    447.26964    313.25578    1.9458943   -0.9444895   -19.348215   -311.29985   -1.2647001   -20.107788    2.1349738   -1.2050346   -8.7580168   -311.19032   -1.0421222    -9.903446     198.1353  -0.88413475   -19.429543   -1.0095902  -0.98752739   -627.85545 
    6100    632.27379    1133.7806    1049.0542    423.26888    313.07852    1.9559306  -0.95111479   -19.345284    -311.2741   -1.2460101   -20.060054     2.102379   -1.1456217   -8.7522304   -311.17719   -1.0747676   -9.9286196    198.14321  -0.90705863   -19.358492   -1.0101264  -0.98811013   -627.85663 
    6200    632.27379    1128.9497    1066.9875    403.40596    312.73301     1.994808    -0.929005   -19.297078   -311.20516   -1.2637339     -20.0379    2.1621309   -1.1467793   -8.6422452   -311.16197   -1.0959114   -9.8472776    198.19321  -0.94159716   -19.386055   -1.0106627  -0.98869287   -627.85781 
    6300    632.27379    1089.2416    1021.6761    373.14659    313.18227    1.9775612  -0.90205442   -19.233397   -311.20118   -1.2311018   -20.066442    2.1641209   -1.0880197   -8.6733865   -311.14679   -1.0536497   -9.8677544      198.231  -0.96272805   -19.434616    -1.011199  -0.98927561   -627.85899 
    6400    632.27379    1079.0932    992.52284    321.59608    313.15615    1.9050096   -1.0155445   -19.114273   -311.20369   -1.2615062   -20.046187    2.1482043   -1.1371452   -8.6464924   -311.16726   -1.0416399   -9.8531472    198.23008   -1.0505645   -19.419751   -1.0117352  -0.98985835   -627.86017 
    6500    632.27379    1049.4111    1010.0228    287.82423    313.35859    1.8445163   -0.9544608   -18.897985    -311.1574   -1.2724072    -20.00687    2.0736347   -1.0369356   -8.4243154   -311.08592   -1.0849889   -9.8635581    198.26155    -1.062955   -19.397623   -1.0122715  -0.99044109   -627.86135 
    6600    632.27379    1040.6641    969.21006    285.21331    313.44068    1.8130715   -1.0155047   -18.768144    -311.2241   -1.3023549   -19.982257    1.9706248   -1.0968379    -8.208413   -311.12797   -1.1433017   -9.8110783    198.30939   -1.0502082   -19.403614   -1.0128078  -0.99102382   -627.86253 
    6700    632.27379    1058.7191    977.14523    294.69528    313.36253    1.8592911  -0.97642037   -18.763032   -311.19215   -1.3010407   -20.017352    2.1060079   -1.0951839   -8.1587109   -311.11288   -1.1778255   -9.8533282    198.34561   -1.0380209   -19.395114    -1.013344  -0.99160656   -627.86371 
    6800    632.27379    1039.6427    986.93631    275.63399    313.24773    1.8768406  -0.98732386   -18.623599   -311.17751   -1.2936047   -20.009357    2.0887599   -1.1137374   -8.0463447   -311.11825   -1.1496247   -9.8060848    198.41072    -1.034753   -19.336054   -1.0138803   -0.9921893   -627.86489 
    6900    632.27379    1029.3592    976.57265    255.89669    312.97687    1.8907485   -1.1082031   -18.408653   -311.14799   -1.2832265   -20.054141    2.1417745    -1.274011    -7.844867   -311.10313   -1.0826373   -9.8866955    198.40142   -1.0640018   -19.318706   -1.0144166  -0.99277204   -627.86607 
    7000    632.27379    986.87312    974.92012    218.71765    313.55991    1.9407481   -1.1797098   -18.321266   -311.19476   -1.2862278   -20.012252    2.2180836   -1.3512731   -7.6774477   -311.14083   -1.1072812   -9.8212344    198.41776   -1.0560925   -19.265757   -1.0149528  -0.99335478   -627.86725 
    7100    632.27379    1013.7077    941.24481    219.40048     313.3741    1.9413163    -1.144741   -18.199886   -311.21994    -1.267542   -19.938108    2.2741121   -1.3249461   -7.5237927   -311.13948   -1.0866442   -9.7171807    198.45235   -1.0611476   -19.317742   -1.0154891  -0.99393752   -627.86843 
    7200    632.27379    1026.2431    963.17875    220.39542     313.1584    1.9383608   -1.1281241   -18.192379   -311.21708   -1.2326902   -19.905918    2.2106593   -1.3524929   -7.4603624   -311.16644   -1.0461458   -9.6852262    198.37517   -1.0756612   -19.332576   -1.0160254  -0.99452026   -627.86961 
    7300    632.27379    1020.6105    946.59461      225.615    313.09933    1.9177561   -1.0579201   -18.098626   -311.21618   -1.2175628   -19.928522    2.1401699    -1.258676   -7.4344691   -311.15907   -1.0078843   -9.7515747    198.37368   -1.0412459   -19.300371   -1.0165616    -0.995103   -627.87079 
    7400    632.27379    1009.5681    944.88612    227.65863    313.03111    1.9250378   -1.0605191   -18.029674   -311.23946   -1.2390614   -19.949606    2.0721841   -1.2404631   -7.3103178    -311.1757   -1.0287234   -9.7892877    198.35994   -1.0009026   -19.307236   -1.0170979  -0.99568573   -627.87197 
    7500    632.27379    1016.3901    946.57051    196.51894    312.97672    1.9458478   -1.0356207   -17.999619   -311.24307   -1.2445462   -19.971181    2.0708033    -1.140203   -7.2571571   -311.18509   -1.0473883   -9.8043416    198.36087   -0.9918584   -19.306318   -1.0176342  -0.99626847   -627.87315 
    7600    632.27379    980.34338    935.66182    176.04279    313.44315    1.9723238  -0.96169594   -18.005844   -311.27134   -1.2632887   -20.038421    2.1410123   -1.0723184   -7.3521533   -311.22816   -1.0843194   -9.8952761    198.31579   -1.0275158   -19.354494   -1.0181704  -0.99685121   -627.87433 
    7700    632.27379    978.54888    936.57915    164.09116    313.13068     1.912365  -0.91842864   -18.051293   -311.24875   -1.2241964   -20.042095    2.1407449  -0.98514264   -7.4887077   -311.21999    -0.997452   -9.8369731    198.31277    -1.039682   -19.305122   -1.0187067  -0.99743395   -627.87551 
    7800    632.27379    973.99804    896.31077    167.70639    313.50897    1.9419251    -1.005331   -18.033896   -311.25446   -1.2818144   -19.994481    2.1949054   -1.1460692   -7.3785939   -311.18898   -1.1198501   -9.8115412    198.31619   -1.0442743   -19.328712    -1.019243  -0.99801669   -627.87669 
    7900    632.27379    966.82179    927.46439    170.16428    313.22845     1.920059   -1.0113886   -18.054417   -311.27193   -1.2587987   -19.945965     2.153154   -1.1978088   -7.4584181   -311.17059   -1.0913525   -9.7387518    198.29245    -1.069774   -19.299573   -1.0197792  -0.99859943   -627.87787 
    8000    632.27379    927.20339    900.22946    146.73363      313.606    1.9094388  -0.95185178    -18.03125   -311.25188   -1.2626835   -19.959162    2.1180815   -1.1067397   -7.5098022   -311.20388   -1.1221949   -9.7406289    198.28776   -1.0629141   -19.341761   -1.0203155  -0.99918217   -627.87905 
    8100    632.27379    963.55795    896.25106     136.2565    313.17816    1.9797345  -0.91189447   -18.012457    -311.2507   -1.2859617   -19.993788    2.1753659   -1.0115674   -7.4035358   -311.22418   -1.1821463   -9.7719054    198.25356   -1.0667091   -19.338125   -1.0208518  -0.99976491   -627.88023 
    8200    632.27379    952.94618    903.27261    105.48536    313.30374    1.9756302  -0.94831384   -18.022482   -311.28235    -1.271101   -19.999406    2.1282509  -0.97689021   -7.4166141   -311.20275   -1.1236632   -9.7950421    198.21666   -1.0978234   -19.330165    -1.021388   -1.0003476   -627.88141 
    8300    632.27379    946.55037    885.65224    79.925796    313.14702    2.0433315  -0.92472181   -18.048443    -311.2534   -1.3038054   -19.989591    2.1932886  -0.91949432   -7.4722931   -311.17324   -1.0919409   -9.8074878    198.17634   -1.1065132   -19.268409   -1.0219243   -1.0009304   -627.88259 
    8400    632.27379    935.95003     880.2782    68.593134    313.39171    1.9903126  -0.86408949   -18.008119   -311.22019   -1.3331586   -20.018136    2.1322635  -0.86400256   -7.4858472   -311.15154   -1.1154679   -9.8753281    198.12531    -1.094495   -19.237189   -1.0224606   -1.0015131   -627.88377 
    8500    632.27379    897.82071    881.18328    75.135266    313.22981    2.0046123  -0.84446743   -18.101227   -311.25471   -1.3643936   -20.044013    2.2338436  -0.96224754   -7.4765344   -311.19056   -1.1212602   -9.8809362    198.07887   -1.1012423   -19.235764   -1.0229968   -1.0020959   -627.88495 
    8600    632.27379     936.8745    857.55718    58.222385    313.18156    1.9943692  -0.88054399   -18.070516   -311.20899   -1.3438764   -20.100775    2.2635917   -1.0778206    -7.503116   -311.11741   -1.0935258   -9.9272337    198.06565   -1.1114532   -19.202579   -1.0235331   -1.0026786   -627.88613 
    8700    632.27379    926.59661    854.86986     33.26958     313.2117    1.9614736  -0.93866257   -18.046055   -311.19499    -1.281255   -20.197263    2.2319373   -1.1304195   -7.5103837   -311.13527   -1.1109876   -10.034491    198.03558   -1.0431111     -19.1533   -1.0240694   -1.0032613   -627.88731 
    8800    632.27379    877.80221    844.05198    9.4670337    313.46962    1.9149911  -0.99162642   -18.016905     -311.219   -1.2219172   -20.279343    2.1692479   -1.0983216   -7.4223251   -311.14637   -1.1467005   -10.140152    198.02298   -1.0465406    -19.19551   -1.0246056   -1.0038441    -627.8885 
    8900    632.27379    909.48701    841.51289    -2.176547    313.16218     1.927006   -1.0397018   -17.990007   -311.25794   -1.1899902   -20.330304    2.1602045   -1.2127792   -7.4578935   -311.20983   -1.0898661   -10.173946    197.98396   -1.0211235   -19.249069   -1.0251419   -1.0044268   -627.88968 
    9000    632.27379    895.00933    847.56591    10.859957    313.41534    1.9251423   -1.0806819   -17.907338   -311.24313   -1.2171302   -20.346837    2.1642402   -1.3098554   -7.3754428   -311.18722   -1.0737842   -10.167548    198.01093  -0.99737773   -19.278829   -1.0256782   -1.0050096   -627.89086 
    9100    632.27379     896.0365    828.15132   -3.4218545     313.4189    1.9647891   -1.0411961   -17.863092   -311.24338    -1.173611   -20.375196    2.2546603   -1.2325692   -7.2698725   -311.17699   -1.0060065   -10.185359    198.04038  -0.99117017   -19.247892   -1.0262144   -1.0055923   -627.89204 
    9200    632.27379    902.15474    832.40971   -4.9148626    313.26828    1.9381833   -1.0807837    -17.78071   -311.24899   -1.1989548   -20.358656     2.201624   -1.2858589    -7.139211   -311.17187   -1.0175474   -10.194438    198.04004  -0.96387272   -19.211963   -1.0267507    -1.006175   -627.89322 
    9300    632.27379    884.30931    834.43681   -11.097885    313.27894    1.9617772   -1.1106032   -17.741753   -311.24018   -1.2065403   -20.407742    2.1955325    -1.326549   -7.0795868   -311.16033    -0.986854   -10.273258    198.05138  -0.96316327   -19.179709    -1.027287   -1.0067578    -627.8944 
    9400    632.27379    876.14591    821.51442   -24.732343    313.56098    2.0349125   -1.1946941   -17.797527   -311.21554   -1.1676199   -20.415345     2.233351   -1.3747635   -7.2068127   -311.15428  -0.97257196   -10.270957    198.03448  -0.97467156   -19.226983   -1.0278232   -1.0073405   -627.89558 
    9500    632.27379     872.6076    826.59181   -23.215046     313.1966    2.0867344   -1.1787187   -17.927939   -311.20131   -1.1497569   -20.420376    2.3239284   -1.3534724   -7.4082553   -311.15928   -1.0144849   -10.224294    198.08809  -0.89802283   -19.251866   -1.0283595   -1.0079232   -627.89676 
    9600    632.27379    876.88169     816.3032   -34.146203    312.99795     2.143268   -1.1440865   -17.995665   -311.23672   -1.1162081   -20.501531    2.4482709   -1.2404789   -7.4934392   -311.17572  -0.90102399   -10.316712    198.14469  -0.88310458   -19.246377   -1.0288958    -1.008506   -627.89794 
    9700    632.27379    854.83736    815.13256   -26.316241    313.24763    2.1199091   -1.0942591   -18.006057   -311.22565   -1.0950459   -20.545908    2.4362525   -1.1614086   -7.5091814   -311.14804  -0.84796638   -10.330131    198.21109  -0.83879922   -19.235026    -1.029432   -1.0090887   -627.89912 
    9800    632.27379    873.48135    813.98581   -18.950531     313.2798     2.040519   -1.0350065   -17.993476   -311.24971   -1.1484358   -20.560095    2.3315822   -1.1108274   -7.4783587   -311.17692  -0.94832438   -10.354881    198.24782  -0.83810054   -19.228137   -1.0299683   -1.0096715    -627.9003 
    9900    632.27379    899.83802    859.68664    10.619409     312.7477    2.0575532   -1.0592841   -17.976164   -311.25276   -1.1793793   -20.531944     2.368794   -1.2203479   -7.5033179   -311.17845    -0.991508   -10.348689    198.30121  -0.89049376   -19.270574   -1.0305046   -1.0102542   -627.90148 
   10000    632.27379     887.3206    848.50439   -18.078832    313.26466     2.111304   -1.1294763   -17.945469   -311.23458   -1.2060048   -20.521649    2.3998409   -1.2981612   -7.3736596   -311.19237   -1.0527351   -10.312757    198.33917  -0.97739395   -19.292909   -1.0310408   -1.0108369   -627.90266 
   10100    632.27379    892.01882    843.99077    11.838137    313.89468    2.0579703   -1.1255564   -17.937439   -311.21983   -1.2217172    -20.50183    2.2856587   -1.3271587   -7.3473687   -311.14747   -1.0594701   -10.354455    198.31799  -0.98707344   -19.264533   -1.0315771   -1.0114197   -627.90384 
   10200    632.27379     886.8808    861.18353    25.221702    313.81617    1.9934081   -1.2051538   -17.949577   -311.22648   -1.2529381   -20.548054    2.1934942   -1.3708169   -7.2748863   -311.14835   -1.0696457   -10.371779     198.3921   -1.0154569   -19.306343   -1.0321134   -1.0120024   -627.90502 
   10300    632.27379      888.442    857.90797     36.66136    313.71381    1.9853709   -1.1799626   -17.878405   -311.23367   -1.2305307   -20.523288    2.1987828   -1.3629047   -7.2365375   -311.16047  -0.99928056   -10.354211    198.46389  -0.97262323   -19.302433   -1.0326496   -1.0125852    -627.9062 
   10400    632.27379      883.663    852.49013    15.090461    313.59451     2.044426   -1.1480201   -17.932579    -311.2479   -1.2109451   -20.485857    2.2427655   -1.2777207   -7.4230594   -311.19935  -0.96309813   -10.291436    198.45909  -0.98776934   -19.207953   -1.0331859   -1.0131679   -627.90738 
   10500    632.27379    894.74993    853.93029    10.593602    313.54463    1.9887307   -1.2100264   -17.979932    -311.2542    -1.182026   -20.432445     2.208726   -1.3383448   -7.4229053    -311.2138    -1.016343   -10.224306    198.42231   -1.0219992   -19.164321   -1.0337222   -1.0137506   -627.90856 
   10600    632.27379    883.97029    850.58366    4.0057669    313.71053    1.9296047    -1.183758   -17.961664    -311.2643   -1.1126297   -20.441686     2.127284   -1.3806004   -7.4525551   -311.21613  -0.94430314   -10.268855    198.45526  -0.98240987    -19.15326   -1.0342584   -1.0143334   -627.90974 
   10700    632.27379    918.50184    855.76804    13.797974    313.16698    1.9617546   -1.1956929   -18.058545   -311.28035   -1.1267302   -20.453974    2.2376312   -1.3247093   -7.5468345   -311.21901   -0.9782043   -10.235698    198.42332  -0.94318434   -19.143363   -1.0347947   -1.0149161   -627.91092 
   10800    632.27379    881.93956    852.08469    -3.079521    313.25929    1.9951461   -1.1830015   -17.993812   -311.30709   -1.1321603   -20.414485    2.2554532   -1.3378793   -7.4939617   -311.20416  -0.97027186   -10.187083    198.41353  -0.90462912   -19.197858    -1.035331   -1.0154989    -627.9121 
   10900    632.27379    874.73563    833.49274    7.1335476    313.85895     1.965874   -1.1963599   -17.984047   -311.30723   -1.1523516   -20.339214    2.1955543   -1.3142765   -7.4275137   -311.22291   -1.0013991   -10.133633    198.46111  -0.85858173    -19.17932   -1.0358672   -1.0160816   -627.91328 
   11000    632.27379    907.58885    829.96285    7.9384009    313.37851    2.0776739   -1.1626141   -18.048949   -311.31562   -1.2075091   -20.321296    2.3366057   -1.2559492   -7.5675588   -311.22885   -1.0325803   -10.088568     198.4451  -0.83634153   -19.164096   -1.0364035   -1.0166643   -627.91446 
   11100    632.27379    877.99138    823.78725   -25.547167    313.72447    2.0693219   -1.1894344   -18.035557   -311.32248   -1.2288738   -20.397315    2.3307221    -1.311355   -7.5199127   -311.28013   -1.0414079   -10.172894    198.45708  -0.92528881   -19.123083   -1.0369398   -1.0172471   -627.91564 
   11200    632.27379    895.43755    842.10967    -12.38717     313.3776    2.0965268   -1.1505766   -18.150946   -311.29482   -1.1771102   -20.377309    2.3353506   -1.3285098   -7.5646563   -311.31041   -1.0142543   -10.138754    198.48883  -0.95327139   -19.111454    -1.037476   -1.0178298   -627.91682 
   11300    632.27379    895.66412    820.29338   -19.421132    313.40169    2.0861789   -1.2036468   -18.234287   -311.30559   -1.2277392   -20.323792    2.3301288   -1.3563938   -7.6765782   -311.30774   -1.0546124   -10.106884    198.43275   -0.9534655   -19.075659   -1.0380123   -1.0184125     -627.918 
   11400    632.27379    890.64068    844.49055   -39.519776    313.19218    2.0540121   -1.1686053   -18.306928   -311.27489   -1.2282075   -20.321216    2.3107628   -1.3488006   -7.8290448   -311.22552   -1.0416623   -10.149103    198.46095  -0.99638228   -19.080983   -1.0385486   -1.0189953   -627.91918 
   11500    632.27379    846.66648    828.45969   -48.435991    313.50887    2.0438808   -1.1143721   -18.288995   -311.27102   -1.1572195   -20.258934    2.3158823   -1.2897635   -7.7317633   -311.25036  -0.99903948    -10.10023    198.45353  -0.97715958   -19.112419   -1.0390848    -1.019578   -627.92036 
   11600    632.27379    859.97249    802.18987   -67.337576    313.57866     2.073608   -1.1603038   -18.328659   -311.29248   -1.1751064   -20.228152    2.3464789   -1.3179834   -7.9030034   -311.25419   -1.0086998   -10.088995    198.40374  -0.97183042   -19.136229   -1.0396211   -1.0201608   -627.92154 
   11700    632.27379    871.61354    795.59819   -75.292927    313.63075    2.0015687   -1.0738426   -18.387758   -311.30111   -1.1704355   -20.195738     2.298367   -1.2432407   -7.8450728   -311.24385   -1.0105711   -9.9941594       198.41   -0.9488896   -19.156396   -1.0401574   -1.0207435   -627.92272 
   11800    632.27379    872.27574    795.39378   -93.258248    313.48957     1.998486   -1.0653478   -18.397983    -311.2632   -1.2057492   -20.142941    2.2530423    -1.166168   -7.8890829   -311.19422   -1.0182144   -9.9454096    198.36373  -0.96145465   -19.181324   -1.0406936   -1.0213262    -627.9239 
   11900    632.27379    865.56051    781.12793   -98.634007    313.76157    2.0352942   -1.1123035    -18.42194   -311.27571    -1.223675   -20.069814    2.3275252   -1.2219996   -7.9428552   -311.21854  -0.99322622   -9.8857557    198.32873  -0.99909724   -19.137795   -1.0412299    -1.021909   -627.92508 
   12000    632.27379    880.95916    798.79456   -74.429542    313.20291    2.0487389   -1.0426996   -18.393002   -311.29159   -1.2030828   -20.018963    2.3102911   -1.1444184    -7.867575   -311.24624   -0.9659833   -9.8084227     198.3895  -0.96918301   -19.134176   -1.0417662   -1.0224917   -627.92627 
   12100    632.27379    840.07691    783.01259   -86.381987    313.50327    2.0582047   -1.0121462   -18.460225   -311.26609    -1.187683   -20.022793     2.324677   -1.0789389   -7.9933326   -311.24373    -1.008275    -9.827144     198.3255  -0.94067882   -19.144338   -1.0423024   -1.0230745   -627.92745 
   12200    632.27379     843.2838    773.68795   -84.960807    313.17521    2.0253071  -0.93588758   -18.527864   -311.24035   -1.2096203   -19.928383    2.3057287   -1.0700651   -8.0411825    -311.2198   -1.0435881   -9.7731923    198.30292  -0.92931998   -19.164555   -1.0428387   -1.0236572   -627.92863 
   12300    632.27379    825.20429     748.4992   -133.22847    313.55457    1.9751436  -0.96634882   -18.514767   -311.24463   -1.2220483   -19.901945     2.287148   -1.1092634   -7.9448157   -311.21521   -1.0772517   -9.7344372     198.2793   -1.0376184   -19.159135    -1.043375   -1.0242399   -627.92981 
   12400    632.27379    804.64652    751.79791   -163.93277    313.45529    2.0019503  -0.98040791   -18.574681   -311.25117   -1.2011383   -19.870026    2.2652815    -1.054506   -7.9954392   -311.24106   -1.0438522   -9.6650022    198.22965    -1.033604   -19.093997   -1.0439112   -1.0248227   -627.93099 
   12500    632.27379    821.62253    776.65193   -170.03009    313.45373    2.0052298   -0.9935006   -18.645258   -311.24759   -1.2094458   -19.782639    2.2693691   -1.0760472   -8.1421681   -311.21731   -1.0756567   -9.5143608    198.22572   -1.0470693   -19.120313   -1.0444475   -1.0254054   -627.93217 
   12600    632.27379    789.00376    752.00837   -168.08416    313.36039    1.9538851   -1.0622736   -18.684505   -311.26529   -1.1797975    -19.66634     2.157543   -1.1965302   -8.1545732   -311.21075   -1.0301472   -9.4825553     198.2044   -1.0572277   -19.163805   -1.0449838   -1.0259881   -627.93335 
   12700    632.27379     783.1306    736.18521   -192.63762    313.42469    1.9390993    -1.091463   -18.644536   -311.22352   -1.1511455   -19.611302    2.1129675   -1.2342088    -8.106922   -311.18292    -0.958652   -9.4165975    198.19511  -0.97691551   -19.142172     -1.04552   -1.0265709   -627.93453 
   12800    632.27379     784.8346     733.3145   -192.45277    313.60959    1.9397476    -1.083203   -18.631034   -311.25075   -1.1575489   -19.522689    2.0769445   -1.2539333    -8.089919   -311.24821  -0.95463941   -9.3235827    198.21501   -0.9427236   -19.120954   -1.0460563   -1.0271536   -627.93571 
   12900    632.27379    775.08792    730.56775   -204.63194    313.22014    1.9055055   -1.1194618   -18.653755   -311.26306   -1.1414055   -19.441831     2.054841   -1.2947071   -8.1491554   -311.25328  -0.94379287   -9.2496804     198.2132   -0.9338481   -19.173553   -1.0465926   -1.0277364   -627.93689 
   13000    632.27379    759.00558    736.49809    -232.0793    313.08022    1.9647428   -1.2200774   -18.600684    -311.2495   -1.1419643   -19.398767    2.1335531   -1.3383264   -8.0897086   -311.20758   -0.9583189   -9.2568867     198.2081  -0.98002485     -19.1511   -1.0471288   -1.0283191   -627.93807 
   13100    632.27379    754.67995    735.20201   -241.93889    313.07168      1.95625   -1.2089244   -18.624364   -311.25828   -1.1248896   -19.327014    2.1380591    -1.386407   -8.1214947   -311.17129  -0.89377832   -9.1485515    198.15884  -0.96926437   -19.118511   -1.0476651   -1.0289018   -627.93925 
   13200    632.27379    725.75155    681.29667   -282.31459    313.34343     1.955539    -1.154873   -18.695561   -311.25323   -1.0653792   -19.225298    2.1869778   -1.3532217   -8.1681941   -311.14631  -0.86493514   -9.0209715    198.08907   -1.0372472    -19.08319   -1.0482014   -1.0294846   -627.94043 
   13300    632.27379    721.80343    690.44502   -324.88652    313.04393    1.9279567    -1.127419   -18.783061   -311.22863   -1.0699001   -19.185602    2.1960839   -1.3064283   -8.2061302   -311.15629  -0.86277254   -8.9957902    198.08322   -1.0788555   -19.093199   -1.0487377   -1.0300673   -627.94161 
   13400    632.27379    719.86674    661.72568   -346.64506    313.22169    1.9601825   -1.0332801   -18.779279   -311.22771   -1.0802587   -19.167702    2.1897575   -1.1198938   -8.2222669   -311.18567  -0.91146253   -8.9394185    198.08002   -1.1137405   -19.121362   -1.0492739   -1.0306501   -627.94279 
   13500    632.27379    717.55101     655.2199   -356.87098    313.11658    1.9742959   -1.0292074   -18.692178   -311.24067    -1.146763   -19.185263    2.2300946   -1.1819069   -8.2182518   -311.19919  -0.97053223   -8.9318371    198.02542   -1.0618587   -19.124465   -1.0498102   -1.0312328   -627.94397 
[...]
  999000    632.27379    857.78012    841.93252   -20.211552    313.79865       -3.324   -6.7360075   -31.629992   -316.61822   -6.9551875   -31.109618   -3.1132262   -6.9112176   -21.336897   -316.55463   -6.8265134   -20.945122    192.24139   -6.7452259     -30.4332   -6.3347227   -6.7741227   -639.57595 
  999100    632.27379    869.71263    873.67339   -23.369237    313.59213   -3.2812708   -6.7104161    -31.62967   -316.61246   -6.9401398   -31.099354   -3.0617389     -6.86338   -21.368711   -316.55085    -6.794215   -20.959839    192.21604   -6.6986442   -30.497783    -6.335259   -6.7747055   -639.57713 
  999200    632.27379    886.09784    847.29213   -45.825188    313.68052   -3.2943989   -6.7128905   -31.607816   -316.56413   -6.9396218   -31.114859   -3.0721841   -6.8849802   -21.304017   -316.53984   -6.7798585   -20.974822    192.24182   -6.6831838   -30.538136   -6.3357953   -6.7752882   -639.57831 
  999300    632.27379     862.3804    830.96353    -42.23567    314.10355   -3.2640246   -6.7130063   -31.613662   -316.58942   -6.9310178   -31.126996    -3.051992   -6.8616604    -21.34718   -316.52365   -6.7650539   -20.983275    192.25214   -6.6864104   -30.552979   -6.3363315    -6.775871   -639.57949 
  999400    632.27379    861.58305    837.35268   -59.033869    313.85995   -3.2873785    -6.648867   -31.621386   -316.55795   -6.9323138   -31.127874   -3.0335112   -6.7810415   -21.307584    -316.4972   -6.7485941   -21.003585    192.20787   -6.7291675   -30.619762   -6.3368678   -6.7764537   -639.58067 
  999500    632.27379    871.91125    832.99749   -80.119688    313.78595   -3.2819939   -6.6630623   -31.568313   -316.55527   -6.9674363   -31.072388   -3.0413677   -6.7581421   -21.275132   -316.53002   -6.7549104   -20.916953    192.22211   -6.7124619   -30.583695   -6.3374041   -6.7770364   -639.58185 
  999600    632.27379    876.99843    844.59299   -57.243007    313.64887   -3.3035173   -6.6787333   -31.547195     -316.572   -6.9838013   -31.100604   -3.0568039   -6.8564778   -21.266774   -316.51958   -6.7850068   -20.964861    192.25932   -6.6552181   -30.562965   -6.3379403   -6.7776192   -639.58303 
  999700    632.27379    819.43712    821.78279   -75.764304    314.29751   -3.3433496   -6.6890696   -31.529785   -316.60053   -6.9369143   -31.091121   -3.1209968   -6.8512484   -21.217781   -316.49753    -6.711204   -20.900221    192.22141    -6.652873   -30.575789   -6.3384766   -6.7782019   -639.58421 
  999800    632.27379    855.81471    837.37994   -88.277585    313.69703   -3.3860391   -6.6980807   -31.520076   -316.57358   -6.9395861   -31.107476   -3.1337653   -6.8180143   -21.206199   -316.47924   -6.7314929   -20.912062    192.15417   -6.6510056   -30.571914   -6.3390129   -6.7787846   -639.58539 
  999900    632.27379     847.5873    814.69949   -79.974944    313.75445   -3.3931292   -6.6717339   -31.550074   -316.54968    -6.928066    -31.06418   -3.1290296   -6.7709928   -21.224373   -316.44873   -6.7735874   -20.954511      192.179   -6.6319162   -30.539326   -6.3395491   -6.7793674   -639.58657 
 1000000    632.27379     842.9968    821.11954   -73.204934    313.81703     -3.39302   -6.7431806   -31.590424   -316.52211   -6.8880498   -31.058058   -3.1329818   -6.8572806   -21.297181   -316.46105   -6.7430643   -20.921144    192.12316   -6.6269563   -30.549045   -6.3400854   -6.7799501   -639.58775 
 1000100    632.27379    828.37172    827.23447   -95.123937    313.99574   -3.3874122   -6.7489513   -31.599675   -316.53014   -6.9382002   -31.020841   -3.1116216   -6.8564813   -21.290217   -316.47993   -6.7975712   -20.855466    192.11497    -6.641041   -30.525271   -6.3406217   -6.7805329   -639.58893 
 1000200    632.27379    852.24254    859.48909   -75.238243    313.78893   -3.3863489   -6.6953557   -31.611946   -316.50485   -6.9184763   -31.031507   -3.1315355   -6.8167042   -21.320399   -316.48639   -6.7132065   -20.856758    192.09985   -6.5722649   -30.502197   -6.3411579   -6.7811156   -639.59011 
 1000300    632.27379    854.46832    852.27865    -67.42305    313.78494   -3.3915477   -6.7148406   -31.637446   -316.50754   -6.9168233    -31.04376   -3.1762332   -6.8434509   -21.344178   -316.48153   -6.7040336    -20.89309    192.12831   -6.5674941    -30.54335   -6.3416942   -6.7816983   -639.59129 
 1000400    632.27379    862.01658    849.30862    -44.88621    313.81214   -3.4061015   -6.7198505   -31.658171   -316.52224   -6.8951739   -31.011402   -3.2077099   -6.8516884   -21.340631   -316.50631    -6.721952   -20.842618    192.17351   -6.5970443   -30.572006   -6.3422305   -6.7822811   -639.59247 
 1000500    632.27379    871.52354    868.21658   -10.888346    313.57943   -3.4083175   -6.7523479   -31.692699   -316.47135   -6.9046049   -31.061042   -3.1963578    -6.886605   -21.434781   -316.47742   -6.6925805   -20.860208    192.18356    -6.629274   -30.563412   -6.3427667   -6.7828638   -639.59365 
 1000600    632.27379    888.11442    861.56224   -18.499825    313.85509   -3.4115532   -6.7260899   -31.689603   -316.45434   -6.9620507   -31.018809   -3.1597935   -6.8986516   -21.442265   -316.44989    -6.728167   -20.854355    192.16449   -6.6389655   -30.580043    -6.343303   -6.7834466   -639.59483 
 1000700    632.27379    890.60743    881.85463       9.0839    313.72817   -3.4551261   -6.7059345   -31.748456   -316.46726   -6.9852358     -31.0343   -3.2011633   -6.8423788    -21.48286   -316.45717   -6.7588813   -20.858659    192.18214   -6.5963857   -30.536973   -6.3438393   -6.7840293   -639.59601 
 1000800    632.27379    896.79648    886.20856    34.236187    313.60005   -3.4542334   -6.7567562    -31.74652    -316.4875   -6.9311865   -31.053104   -3.2417071   -6.9127211    -21.46332   -316.42546   -6.7612332   -20.874407    192.20687    -6.526566   -30.567018   -6.3443755    -6.784612   -639.59719 
 1000900    632.27379      918.696    902.73634    38.639692    313.49642   -3.4959244   -6.7366802    -31.69571   -316.52015   -6.9032653    -31.10469   -3.3114592   -6.9222279   -21.420845   -316.46167   -6.6910649   -20.888658    192.21733   -6.5291719   -30.575306   -6.3449118   -6.7851948   -639.59837 
 1001000    632.27379    885.19317    887.75632    30.587737    313.99746   -3.5092315   -6.7494974   -31.690887   -316.50647   -6.8737126   -31.120053   -3.3031546   -6.9007982   -21.383526   -316.42294   -6.7453615   -21.004718     192.2125   -6.4999484   -30.570982   -6.3454481   -6.7857775   -639.59955 
 1001100    632.27379    909.82331    894.57791    83.472361    313.46693    -3.529536   -6.7356023   -31.757831   -316.54071   -6.8584176    -31.14975   -3.3441962   -6.8236888   -21.433025   -316.44018   -6.7695012   -21.008166    192.26417   -6.5106331   -30.594647   -6.3459843   -6.7863602   -639.60073 
 1001200    632.27379    938.49912     887.0961    40.562602    313.69808   -3.5305927   -6.7127721   -31.784101   -316.55976   -6.8687697   -31.172965   -3.3399273   -6.8194595   -21.503441   -316.47454   -6.7572418   -21.039134    192.28173   -6.5257236   -30.565806   -6.3465206    -6.786943   -639.60191 
 1001300    632.27379    925.95167    902.01681    81.007429      313.699   -3.4897055   -6.6414122   -31.793554   -316.50029   -6.8575849    -31.19872   -3.2733493   -6.7976462   -21.539297   -316.45215   -6.7045046   -21.015013    192.29774   -6.5558087   -30.574501   -6.3470569   -6.7875257   -639.60309 
 1001400    632.27379    933.22992    902.42349      87.4492    313.76861   -3.4632694   -6.6042417   -31.813439   -316.49369   -6.8865849   -31.181183   -3.2012442   -6.7962136   -21.579813   -316.47109   -6.7012622    -21.06132    192.26302   -6.6061488   -30.622922   -6.3475931   -6.7881085   -639.60427 
 1001500    632.27379    933.24757    929.03727    69.545963    313.85234   -3.4462825   -6.6138643    -31.79622    -316.4973   -6.8909159   -31.176106    -3.159999   -6.7984958   -21.555701   -316.51736   -6.6793891   -21.056974    192.25426   -6.5791133   -30.633185   -6.3481294   -6.7886912   -639.60545 
 1001600    632.27379    945.58187    919.64378     99.02404     313.8381   -3.4053183   -6.6279294   -31.778834   -316.51298   -6.8649571   -31.206554   -3.1760332   -6.7970643   -21.483797   -316.43989   -6.6717612   -21.047932    192.23979   -6.5618103   -30.618574   -6.3486657   -6.7892739   -639.60663 
 1001700    632.27379    956.68919    933.95391    113.75658    313.78145   -3.3710148   -6.6436019   -31.801531   -316.57533   -6.8651054   -31.206043   -3.1567742   -6.7588604   -21.448312    -316.4831   -6.6215435   -21.057987    192.24925   -6.5836044   -30.643989   -6.3492019   -6.7898567   -639.60781 
 1001800    632.27379    942.72912    939.76619    108.47611    314.07673   -3.3278364   -6.6657499   -31.799857   -316.53879   -6.8474536    -31.13856   -3.0879763   -6.7703318   -21.459543   -316.44803   -6.6289904   -20.928475    192.26416   -6.6378056   -30.592699   -6.3497382   -6.7904394   -639.60899 
 1001900    632.27379    973.50472    954.08273      128.741    314.03621   -3.3086557   -6.6325193   -31.789832   -316.59135   -6.8299575   -31.172034   -3.0409641   -6.7583263   -21.510761   -316.48353   -6.6100781   -20.998082    192.31173   -6.6027671   -30.611941   -6.3502745   -6.7910222   -639.61018 
 1002000    632.27379    967.96118    970.48599    166.62571     314.0115   -3.3582384   -6.6576982   -31.787599   -316.59189   -6.8644947   -31.165405   -3.1010101   -6.7762918   -21.503455   -316.54044   -6.6848795   -20.967005    192.34825   -6.5987214   -30.677165   -6.3508107   -6.7916049   -639.61136 
 1002100    632.27379    987.10375    987.67982    199.08029    313.79392   -3.3906945   -6.6713676   -31.818959   -316.59537   -6.9004177   -31.172003   -3.1845239   -6.8269354   -21.536885   -316.50949   -6.7478565   -20.965735    192.33808   -6.5597702   -30.703546    -6.351347   -6.7921876   -639.61254 
 1002200    632.27379    999.24227     999.6614    205.20161    313.74939   -3.3647682   -6.7283916   -31.819127   -316.61081   -6.9058126   -31.195603   -3.1340544   -6.8413552   -21.497136   -316.53667    -6.731816   -21.011337    192.31998   -6.5566743   -30.777739   -6.3518833   -6.7927704   -639.61372 
 1002300    632.27379    1002.4304    1000.0533     209.1351     313.5178   -3.3802042   -6.7268443   -31.887394   -316.62701   -6.9003276   -31.205176   -3.1739221   -6.8441022   -21.599901   -316.57316   -6.7367557   -21.034933    192.33977   -6.5671469   -30.762853   -6.3524196   -6.7933531    -639.6149 
 1002400    632.27379    1008.2921    990.82752    182.98603    314.06971   -3.4167284   -6.7201542   -31.880397   -316.62298   -6.8596819   -31.211829   -3.1757998   -6.8293733   -21.576672   -316.56629   -6.6687819   -21.037541    192.33414   -6.6643366   -30.709525   -6.3529558   -6.7939359   -639.61608 
 1002500    632.27379    995.16094    997.29938    204.87437    313.83129   -3.3977001    -6.722617   -31.883299   -316.65934   -6.8605405   -31.256429   -3.1157646   -6.8852173   -21.629702   -316.60395    -6.724656    -21.09284    192.36185   -6.6999897   -30.746113   -6.3534921   -6.7945186   -639.61726 
 1002600    632.27379    987.33003    999.52168    205.10541    314.10076   -3.3921194   -6.7469987   -31.879413   -316.68228   -6.8205529   -31.329039   -3.1470998   -6.9019158   -21.657885   -316.63129   -6.6301653   -21.154208    192.30626   -6.7152019   -30.731334   -6.3540284   -6.7951013   -639.61844 
 1002700    632.27379    1023.6035    999.11693    230.07165    313.72167   -3.3786841   -6.7193974   -31.840496   -316.69245    -6.800954   -31.326419   -3.1134038   -6.8788616   -21.585869   -316.63942    -6.596963   -21.145915    192.26679   -6.6892299   -30.770063   -6.3545646   -6.7956841   -639.61962 
 1002800    632.27379    1008.9427     996.6233    207.74314    314.24364   -3.3905799   -6.7059338   -31.872054   -316.66569   -6.8738994   -31.353795    -3.132453   -6.8917456   -21.593148   -316.61433   -6.6465002   -21.205852    192.24124   -6.6799154   -30.760465   -6.3551009   -6.7962668    -639.6208 
 1002900    632.27379    1002.5698    1000.5846    233.77832     314.0949   -3.3575695   -6.7314466    -31.85189   -316.65424   -6.8338329   -31.374003   -3.1092465   -6.8798248   -21.576053    -316.6125   -6.6222547   -21.242261    192.21934   -6.6814167   -30.784927   -6.3556372   -6.7968495   -639.62198 
 1003000    632.27379    1023.8646     1012.426    262.15525    313.83279   -3.3715927   -6.7609848   -31.876492   -316.59589   -6.8371913   -31.305715   -3.1202337   -6.8124996   -21.573965   -316.54679   -6.6155175   -21.162117    192.21185    -6.708907   -30.778152   -6.3561734   -6.7974323   -639.62316 
 1003100    632.27379    1039.4392     1012.729     257.8773    313.81728   -3.3949785   -6.7813652   -31.895326   -316.59623   -6.8777754   -31.366674   -3.1406444   -6.8551079   -21.639249   -316.52078   -6.6381883   -21.244344    192.24016   -6.7265896    -30.81696   -6.3567097    -6.798015   -639.62434 
 1003200    632.27379    1047.8506    1012.4115    261.66158    313.81502   -3.4066422   -6.7212537   -31.871048   -316.62211   -6.9280881   -31.348011   -3.1917042   -6.8096815    -21.58169   -316.56722   -6.7044281   -21.179079    192.21167   -6.7028618   -30.821055    -6.357246   -6.7985978   -639.62552 
 1003300    632.27379    1020.0023    1002.6527      226.351    314.25988   -3.4073164   -6.6939179   -31.907037   -316.63129   -6.9295767   -31.396103   -3.1948219   -6.8594733   -21.623956   -316.57646    -6.765626   -21.211505    192.24134   -6.7095502   -30.880286   -6.3577822   -6.7991805    -639.6267 
 1003400    632.27379    1036.1105    1030.9989    254.63701    313.64158   -3.4401706    -6.748136   -31.884733   -316.63112   -7.0001147   -31.376518   -3.2350024   -6.9305231   -21.610158   -316.55927   -6.8361849   -21.198624    192.23225   -6.7389556    -30.89755   -6.3583185   -6.7997632   -639.62788 
 1003500    632.27379    1028.2688    1017.5158    263.28445    313.93302   -3.4171297   -6.8343514   -31.872145   -316.61571   -7.0132867   -31.380794   -3.2065121   -6.9852128   -21.620166   -316.52282   -6.8617238    -21.21838    192.21779   -6.7699892   -30.832923   -6.3588548    -6.800346   -639.62906 
 1003600    632.27379     1035.435    1033.9625     288.0731    313.73637   -3.4346334   -6.8902615   -31.871053   -316.62943   -7.0355511   -31.423057   -3.2301345   -7.0461908   -21.613585   -316.57184   -6.8740836   -21.246835    192.14165    -6.815286   -30.766064    -6.359391   -6.8009287   -639.63024 
 1003700    632.27379    1050.8514     1028.447     297.1298    313.55807   -3.5003217   -6.8487748   -31.895551   -316.65384   -7.0670748   -31.406949   -3.2914199    -6.985051   -21.587148   -316.57724   -6.8867306   -21.237355    192.19057   -6.7654598    -30.71655   -6.3599273   -6.8015115   -639.63142 
 1003800    632.27379    1018.3419    1015.8687    272.49548    314.17887     -3.42208   -6.8378242   -31.822041   -316.65261   -7.0248837   -31.419416   -3.1635616    -6.997897   -21.542264   -316.61744   -6.8994321   -21.270172    192.17052   -6.7755781   -30.738868   -6.3604636   -6.8020942    -639.6326 
 1003900    632.27379    1032.7391     987.7013    268.23887    314.35683   -3.4246083   -6.8376076   -31.854727   -316.68361   -7.0344405   -31.373615   -3.1546203   -7.0214226   -21.533017   -316.69771   -6.9261604   -21.167464     192.1505    -6.828696   -30.764811   -6.3609998   -6.8026769   -639.63378 
 1004000    632.27379    1069.0797    1042.8714     316.4679    313.77659   -3.4269002   -6.8715737   -31.910751   -316.64618    -7.009803   -31.415272   -3.1638969   -7.0562988   -21.602964   -316.64352   -6.8156167   -21.239263    192.13748   -6.8415249   -30.776171   -6.3615361   -6.8032597   -639.63496 
 1004100    632.27379    1056.2537    1031.2534    296.52907    313.94044    -3.454297   -6.9454634   -31.949721   -316.67018   -7.0065821    -31.47735   -3.2208902   -7.1163025   -21.690155   -316.65643   -6.7971308   -21.331451    192.14575   -6.8116687   -30.794691   -6.3620724   -6.8038424   -639.63614 
 1004200    632.27379    1076.7582    1054.8738    325.57847    313.80219   -3.4424667   -6.9507793   -31.939691   -316.67928   -7.0053871   -31.507133   -3.2145959   -7.0675522   -21.668146   -316.65195    -6.808623   -21.340684    192.16194   -6.7933791   -30.787024   -6.3626086   -6.8044251   -639.63732 
 1004300    632.27379    1071.6745    1049.8789    312.92156     313.7741   -3.4511965   -6.9652359   -31.953885   -316.65746   -6.9984857    -31.51989     -3.24411   -7.0789934   -21.685584   -316.60701   -6.8298608   -21.372855    192.15722   -6.7861852   -30.786413   -6.3631449   -6.8050079    -639.6385 
 1004400    632.27379    1061.0116    1056.1092    347.23328    314.11944   -3.4776152   -6.9950664   -31.994964   -316.66686   -7.0191669   -31.586954   -3.2618899   -7.0863511   -21.774342   -316.58693   -6.8677209   -21.403936     192.2298    -6.791503   -30.736708   -6.3636812   -6.8055906   -639.63968 
 1004500    632.27379    1100.1878     1053.256    382.12488    314.10428    -3.478766     -6.98773   -31.978136   -316.66496    -7.069215   -31.576104   -3.2866129   -7.0878498   -21.682191   -316.61382   -6.9218021   -21.372344    192.22008    -6.768851   -30.763725   -6.3642174   -6.8061734   -639.64086 
 1004600    632.27379    1117.0264    1055.5763    382.60928    314.18374   -3.5151416   -6.9389414    -31.97974   -316.60646   -7.1154527   -31.584317   -3.3182158   -7.0673922    -21.70168   -316.51385   -6.9046896   -21.435782    192.21958   -6.8211178   -30.805074   -6.3647537   -6.8067561   -639.64204 
 1004700    632.27379    1111.2365    1081.0021    374.05438     314.1081   -3.5598203    -6.923402   -32.047111   -316.62629   -7.0792851   -31.615896   -3.3687849   -7.0999124   -21.791096   -316.51878   -6.8870176   -21.456174    192.21311   -6.8444288   -30.856767     -6.36529   -6.8073388   -639.64322 
 1004800    632.27379    1102.6992    1070.0826    379.91843    314.01122   -3.5426924   -6.9985733   -32.022017    -316.6317    -7.119226   -31.648408   -3.3641968   -7.1957314   -21.734567   -316.50354   -6.9175646   -21.494678    192.23247   -6.8242547   -30.835158   -6.3658262   -6.8079216    -639.6444 
 1004900    632.27379    1107.6192    1082.8476     384.4688    313.90593   -3.5514621   -6.9881669   -32.033608   -316.61973   -7.0938055   -31.664217   -3.3749228   -7.1103292    -21.76363   -316.50905   -6.8816893   -21.495267    192.22368   -6.8493593   -30.898252   -6.3663625   -6.8085043   -639.64558 
 1005000    632.27379    1093.0993     1101.874    402.73555    313.82342   -3.5269929   -6.8775755   -31.974826   -316.60785   -7.0400639   -31.682149   -3.2886571   -7.0076785   -21.673463   -316.49785   -6.9039432   -21.527784      192.222   -6.8087988   -30.867406   -6.3668988   -6.8090871   -639.64676 
Loop time of 10856.1 on 1024 procs for 1000000 steps with 780000 atoms

Performance: 15.917 ns/day, 1.508 hours/ns, 92.114 timesteps/s
99.9% CPU use with 1024 MPI tasks x no OpenMP threads

MPI task timing breakdown:
Section |  min time  |  avg time  |  max time  |%varavg| %total
---------------------------------------------------------------
Pair    | 344.42     | 4230.8     | 4737.7     | 944.1 | 38.97
Neigh   | 0.029955   | 26.385     | 28.625     | 102.2 |  0.24
Comm    | 64.163     | 934.94     | 1983.3     | 687.1 |  8.61
Output  | 2230.2     | 2230.3     | 2230.6     |   0.0 | 20.54
Modify  | 80.154     | 87.018     | 136.77     |  72.3 |  0.80
Other   |            | 3347       |            |       | 30.83

Nlocal:    761.719 ave 879 max 0 min
Histogram: 32 0 0 0 0 16 16 0 372 588
Nghost:    3250.66 ave 3643 max 0 min
Histogram: 32 0 0 0 5 27 0 0 112 848
Neighs:    53747.4 ave 63186 max 0 min
Histogram: 32 0 0 9 7 8 8 0 641 319

Total # of neighbors = 55037338
Ave neighs/atom = 70.5607
Neighbor list builds = 8868
Dangerous builds = 0




Total wall time: 3:05:37
