LAMMPS (16 Feb 2016)
# ------------------------ INITIALIZATION ----------------------------
echo both
#log		log.c
units           metal
dimension       3
boundary        p p p
atom_style      atomic
shell         mkdir  cfg
WARNING: Shell command 'mkdir' failed with error 'File exists' (../input.cpp:1126)
shell         mkdir  dump
WARNING: Shell command 'mkdir' failed with error 'File exists' (../input.cpp:1126)


# ----------------------- ATOM DEFINITION & Force Field -------------
# ----------------------- ATOM DEFINITION ----------------------------
lattice         fcc 4.024845358 #origin 0.0 0.0 0.0 orient x 1 -1 0 orient y 1 1 -2 orient z 1 1 1
Lattice spacing in x,y,z = 4.02485 4.02485 4.02485
variable        Lx equal 52
variable        Ly equal 2
variable        Lz equal 208
variable        boxLZ equal 218
region          SYSTEM block -${Lx} ${Lx} -${Ly} ${Ly} -${Lz} 0 units lattice
region          SYSTEM block -52 ${Lx} -${Ly} ${Ly} -${Lz} 0 units lattice
region          SYSTEM block -52 52 -${Ly} ${Ly} -${Lz} 0 units lattice
region          SYSTEM block -52 52 -2 ${Ly} -${Lz} 0 units lattice
region          SYSTEM block -52 52 -2 2 -${Lz} 0 units lattice
region          SYSTEM block -52 52 -2 2 -208 0 units lattice
region          BOX block -${Lx} ${Lx} -${Ly} ${Ly} -${boxLZ} 5 units lattice
region          BOX block -52 ${Lx} -${Ly} ${Ly} -${boxLZ} 5 units lattice
region          BOX block -52 52 -${Ly} ${Ly} -${boxLZ} 5 units lattice
region          BOX block -52 52 -2 ${Ly} -${boxLZ} 5 units lattice
region          BOX block -52 52 -2 2 -${boxLZ} 5 units lattice
region          BOX block -52 52 -2 2 -218 5 units lattice
create_box      1 BOX
Created orthogonal box = (-209.292 -8.04969 -877.416) to (209.292 8.04969 20.1242)
  16 by 1 by 32 MPI processor grid
create_atoms    1 region SYSTEM
Created 346944 atoms

delete_atoms     porosity BOX 0.002 15793    ##random seed <RAND1>
Deleted 714 atoms, new total = 346230

#---------------------------------------------------------------------------------
pair_style      eam/alloy
pair_coeff  	  * * Al_wkg_MSMSE_2009.set Al

#----------------------------------------------------------------------------------
velocity       all create 300.0 4738 mom yes rot yes dist gaussian         ##random seed <RAND2>

fix             1 all npt temp 300 300 0.1 iso 0.0 0.0 2
run      10000
Neighbor list info ...
  1 neighbor list requests
  update every 1 steps, delay 10 steps, check yes
  max neighbors/atom: 2000, page size: 100000
  master list distance cutoff = 8.365
  ghost atom cutoff = 8.365
  binsize = 4.1825 -> bins = 101 4 215
Memory usage per processor = 0.053688 Mbytes
Step Temp E_pair E_mol TotEng Press Volume 
       0          300   -914795.05            0   -901368.96    1587.7778    6048473.6 
   10000    300.02879   -900805.17            0    -887377.8     2.251768    6176704.7 
Loop time of 60.9417 on 512 procs for 10000 steps with 346230 atoms

Performance: 14.177 ns/day, 1.693 hours/ns, 164.091 timesteps/s
99.9% CPU use with 512 MPI tasks x no OpenMP threads

MPI task timing breakdown:
Section |  min time  |  avg time  |  max time  |%varavg| %total
---------------------------------------------------------------
Pair    | 0.005132   | 37.305     | 40.427     | 121.3 | 61.21
Neigh   | 0.00027323 | 0.21174    | 0.34803    |  11.3 |  0.35
Comm    | 0.054511   | 6.893      | 21.648     | 118.5 | 11.31
Output  | 0.00089192 | 0.0009007  | 0.000916   |   0.0 |  0.00
Modify  | 13.056     | 16.125     | 60.336     | 198.3 | 26.46
Other   |            | 0.4055     |            |       |  0.67

Nlocal:    676.23 ave 752 max 0 min
Histogram: 16 0 0 16 0 9 7 0 0 464
Nghost:    3188.12 ave 3592 max 0 min
Histogram: 16 0 0 16 0 16 0 0 0 464
Neighs:    47552.1 ave 53232 max 0 min
Histogram: 16 0 16 0 0 9 7 0 3 461

Total # of neighbors = 24346671
Ave neighs/atom = 70.3194
Neighbor list builds = 76
Dangerous builds = 0
unfix 1

fix            2 all nvt temp 300.0 300.0 0.1

run      10000
Memory usage per processor = 0.053688 Mbytes
Step Temp E_pair E_mol TotEng Press 
   10000    300.02879   -900805.17            0    -887377.8     2.251768 
   20000    299.37357   -900750.97            0   -887352.92   -123.09176 
Loop time of 59.3834 on 512 procs for 10000 steps with 346230 atoms

Performance: 14.550 ns/day, 1.650 hours/ns, 168.397 timesteps/s
99.9% CPU use with 512 MPI tasks x no OpenMP threads

MPI task timing breakdown:
Section |  min time  |  avg time  |  max time  |%varavg| %total
---------------------------------------------------------------
Pair    | 0.0039904  | 36.919     | 40.054     | 119.7 | 62.17
Neigh   | 0.0001688  | 0.13588    | 0.26845    |   9.0 |  0.23
Comm    | 0.035826   | 6.8836     | 20.837     | 111.6 | 11.59
Output  | 0.00019503 | 0.00020493 | 0.00022411 |   0.0 |  0.00
Modify  | 10.467     | 13.758     | 57.653     | 213.3 | 23.17
Other   |            | 1.687      |            |       |  2.84

Nlocal:    676.23 ave 751 max 0 min
Histogram: 16 0 0 16 0 0 16 0 0 464
Nghost:    3200.92 ave 3581 max 0 min
Histogram: 16 0 0 16 0 16 0 0 0 464
Neighs:    47547.9 ave 53337 max 0 min
Histogram: 16 0 16 0 0 8 8 0 1 463

Total # of neighbors = 24344518
Ave neighs/atom = 70.3131
Neighbor list builds = 49
Dangerous builds = 0
reset_timestep 0
unfix    2
#---------------------- DEFINE Laser GERION and GROUP ----------------
region       R1  block -75  75  INF  INF  INF  5  units box
group        G1 region R1
123353 atoms in group G1
group        G2 subtract all G1
222877 atoms in group G2


#define     temperature/pressure calculation  group
variable    x1atom atom "x>=0  &&  x<4 &&  z>-40 && z<1"     ##NEW!!!!!!!!!!!!
variable    x2atom atom "x>=-209.292  &&  x<-205.292 &&  z>-40 && z<1"
variable    x3atom atom "x>=0  &&  x<4 &&  z>-20 && z<1"
variable    x4atom atom "x>=-209.292  &&  x<-205.292 &&  z>-20 && z<1"
variable    x5atom atom "x>=196  &&  x<200 &&  z>-40 && z<1"

group       x1atom variable x1atom
151 atoms in group x1atom
group       x2atom variable x2atom
160 atoms in group x2atom
group       x3atom variable x3atom
79 atoms in group x3atom
group       x4atom variable x4atom
80 atoms in group x4atom
group       x5atom variable x5atom
160 atoms in group x5atom


compute      COM1x x1atom com
compute      COM2x x2atom com
compute      COM3x x3atom com
compute      COM4x x4atom com
compute      COM5x x5atom com

compute      COMall all com

#Temperature profile
#variable      Tprofile atom 300*(1+(step/5000)*2.5*exp(z/40))
variable      Tprofile atom 300*(1+(step/5000)*2.5*exp(z/75))

# ------------------------- SETTINGS ---------------------------------
thermo          100
thermo_style    custom step lx pxx pyy pzz temp c_COM1x[1] c_COM1x[2] c_COM1x[3] c_COM2x[1] c_COM2x[2] c_COM2x[3] c_COM3x[1] c_COM3x[2] c_COM3x[3] c_COM4x[1] c_COM4x[2] c_COM4x[3]  c_COM5x[1] c_COM5x[2] c_COM5x[3] c_COMall[1] c_COMall[2] c_COMall[3]

timestep       0.002


compute dispall all displace/atom
# ---------------- Run Laser Material Interaction --------------------
#dump          1 all custom 1000 dump/z1dump.atom id type x y z c_dispall[1]  c_dispall[2]  c_dispall[3] c_dispall[4]
#dump          2 all cfg 100 cfg/*.cfg mass type xs ys zs
#dump_modify   2 element Al

#relax for 2 PS
#fix           1 all nvt temp 300.0 300.0 0.1
#run  1000
#unfix         1

fix           1  all nve
fix           3temp  G1  langevin  v_Tprofile  0  0.1  378411   #TEST ALL
run           5000
Memory usage per processor = 0.0537109 Mbytes
Step Lx Pxx Pyy Pzz Temp COM1x[1] COM1x[2] COM1x[3] COM2x[1] COM2x[2] COM2x[3] COM3x[1] COM3x[2] COM3x[3] COM4x[1] COM4x[2] COM4x[3] COM5x[1] COM5x[2] COM5x[3] COMall[1 COMall[2 COMall[3 
       0    421.52133   -25.025982   -39.210103    -305.0392    299.37357    1.3611833   -1.1415079   -19.501926   -207.60335  -0.97756999    -19.92084    1.3187809  -0.98937939   -9.6865205   -207.58712  -0.97831762   -9.7211594    197.75163  -0.95907411   -20.018213   -1.0127515   -1.0134012   -418.51535 
     100    421.52133    2.2341805   -21.407668   -224.17178    299.85011    1.3494761   -1.1232466   -19.476696   -207.57758   -1.0707314   -19.960739    1.3071476  -0.95497163   -9.6486342    -207.5498    -1.071999   -9.7650837    197.76273  -0.98948512   -19.953165   -1.0131169   -1.0121831   -418.51653 
     200    421.52133   -8.9487767   -20.872984    -220.9988     300.9965     1.343964   -1.1487069   -19.433489    -207.5804   -1.0783086   -19.944236    1.2672867  -0.99898468   -9.5823657   -207.57131   -1.0556369   -9.8331852    197.75678   -1.0317577   -19.924792   -1.0131139   -1.0101935   -418.51744 
     300    421.52133    61.333627    50.082043   -172.51772    301.11448    1.3279623   -1.1338014   -19.408872   -207.59931    -1.101332   -19.948278    1.2243112   -1.0017037      -9.5481   -207.60665   -1.1108683    -9.825726    197.72017     -1.09526    -19.91011   -1.0136146   -1.0086678   -418.51806 
     400    421.52133    22.234758    64.686702   -167.32289    301.53905    1.3601021   -1.1439174   -19.403106   -207.62259   -1.1400666   -19.961707    1.2883634   -0.9812843   -9.5339531   -207.63668   -1.1564434   -9.8451145    197.65734   -1.1035869   -19.951018   -1.0139535   -1.0080141   -418.51797 
     500    421.52133    84.119609    63.873832   -138.24333      302.413    1.3510552   -1.1518986   -19.376805   -207.68514   -1.1216871   -19.943289    1.2941498  -0.98472556   -9.5142771   -207.66359   -1.1164621   -9.8034631    197.59577   -1.1610482    -19.94403   -1.0142662   -1.0073861   -418.51713 
     600    421.52133    161.34493    131.04956   -39.689331    302.56334    1.3382492   -1.1586327   -19.457821   -207.71125   -1.0964866   -19.964452     1.286479  -0.96973316   -9.6326812   -207.71392   -1.1049625   -9.8625419    197.57587   -1.1498851    -19.94692   -1.0142527   -1.0068549   -418.51732 
     700    421.52133    171.94055    121.08744   -36.622675    303.02318    1.3460992   -1.1907736   -19.458524   -207.71843   -1.0659021   -19.929498    1.2682304   -0.9598305   -9.5915737   -207.75745    -1.057538   -9.8530391     197.5871   -1.1559128   -19.935638   -1.0149334   -1.0060503   -418.51781 
     800    421.52133    194.52996    122.47977   -21.107888    303.72879    1.3495333   -1.1587546   -19.446655   -207.74719   -1.0929078   -19.911506    1.2968485  -0.89906752   -9.5611504   -207.76748   -1.0837688   -9.7614884    197.55986   -1.1357463   -19.951123   -1.0148769   -1.0053906   -418.51838 
     900    421.52133    231.22772    187.83206   -13.952378    304.70077    1.3375639   -1.1402012   -19.427148   -207.77608   -1.0873809   -19.912248    1.2994034  -0.92359957   -9.5649177   -207.80081   -1.1066989   -9.7818831    197.53631   -1.1273571   -19.931637   -1.0142728   -1.0053138     -418.519 
    1000    421.52133    254.49055    235.09004    34.957927    304.61491    1.3068141   -1.1275844   -19.419171   -207.76655    -1.083194   -19.877886    1.2655253  -0.93581101    -9.586272   -207.78329   -1.0877852    -9.719947    197.58015   -1.1089491   -19.925103   -1.0140433   -1.0048784   -418.51911 
    1100    421.52133    296.57251    259.92899    80.483994    305.66833    1.3007058   -1.1340302   -19.412341   -207.75174   -1.1372582   -19.862353    1.2697929  -0.93655537   -9.5574333   -207.74248   -1.1529941   -9.7118518    197.57265   -1.0972471    -19.93831   -1.0128975   -1.0051878   -418.51938 
    1200    421.52133    309.65272    312.78247    88.445768    305.85234    1.3498418   -1.1304321   -19.370288    -207.7428   -1.1486424    -19.87633    1.3020404  -0.92985949   -9.5060404   -207.71317   -1.1812257   -9.7274565    197.62392    -1.043698   -19.884556   -1.0122531   -1.0058627   -418.51925 
    1300    421.52133    332.27889    305.91749    120.30347    306.88067    1.3602334   -1.1255635   -19.316675   -207.72322   -1.1045006   -19.947051    1.3181556  -0.93713536   -9.4440181   -207.70529   -1.1373171   -9.7712479     197.6175   -1.0730192   -19.850899   -1.0112625   -1.0062016   -418.51804 
    1400    421.52133    412.57193    384.49763    207.57659     307.3392    1.3447161   -1.1278241   -19.381426   -207.70152   -1.0415196      -19.911    1.3183094  -0.97794521   -9.5036431   -207.68556   -1.0958359     -9.78036    197.63267    -1.057811   -19.826433   -1.0099722   -1.0061506   -418.51767 
    1500    421.52133    389.02029    408.90988    174.36079    308.05815    1.3388251   -1.1741746   -19.365631    -207.6584   -1.0305147   -19.886924    1.2988406  -0.97597789   -9.4601127   -207.66283    -1.059047   -9.7682522    197.63122   -1.0251449   -19.843077   -1.0086839   -1.0063906   -418.51684 
    1600    421.52133    416.61176    425.89113     217.1551    308.78306    1.3502602   -1.1863605   -19.330014   -207.68152    -1.061864   -19.924793    1.3141994  -0.93177405   -9.4809909   -207.69197   -1.0605423   -9.8275537     197.6019    -1.008778    -19.83283   -1.0074429   -1.0059315    -418.5153 
    1700    421.52133     409.2965    406.25618     202.4826    309.60257    1.3379063   -1.1546377   -19.259481   -207.69985   -1.0442509   -19.901394    1.3398186  -0.89499891    -9.404959    -207.6586   -1.0688971   -9.7847187    197.61826   -1.0320992   -19.882932   -1.0074857    -1.005512   -418.51353 
    1800    421.52133    474.06619    452.66246     232.8303    309.92768    1.3617502   -1.1710133   -19.266113    -207.7312   -1.0467397    -19.91011     1.352078  -0.93744676   -9.4378018   -207.69715   -1.0383065   -9.7494316    197.62934   -1.0713051   -19.911919    -1.006666   -1.0051662   -418.51298 
    1900    421.52133    508.20663    497.00602    261.89812    310.12475      1.36925   -1.1602344    -19.29834   -207.72323   -1.0283754    -19.97153    1.3524369  -0.96026266   -9.4154152   -207.73026  -0.96590247   -9.8215856    197.62707   -1.0712925   -19.946411   -1.0055088   -1.0058567   -418.51199 
    2000    421.52133    492.83465    471.14759    197.06847    311.44016    1.3525345   -1.1880575   -19.228517   -207.72891   -1.0825469   -20.001669    1.3532024   -1.0233876   -9.3166461   -207.72619   -1.0337444   -9.8608457    197.64265   -1.0672569   -19.977513   -1.0046317   -1.0065137   -418.51095 
    2100    421.52133    571.26904    555.87315    284.85702    312.23661    1.3267133   -1.1867839    -19.24994   -207.70323   -1.0829986    -20.01485    1.3143815  -0.94640686   -9.3296397    -207.6739   -1.0306962   -9.8739869    197.66891   -1.0729086   -20.020999   -1.0044681   -1.0068811   -418.50961 
    2200    421.52133    649.01193    608.16662    377.76376    311.88065    1.3324207   -1.1677496   -19.261023   -207.68964   -1.0319994   -20.065271    1.3352714  -0.88821843   -9.3540712   -207.65755   -1.0046655    -9.909642    197.68109   -1.0879082   -20.035753   -1.0041325   -1.0071424     -418.508 
    2300    421.52133      686.913    613.11854    383.69128     313.3326    1.3159043   -1.1709162   -19.238556   -207.64904    -1.047401   -20.069323    1.2462292  -0.92729213   -9.3169347   -207.60239     -1.04695   -9.9046338    197.71034   -1.0962511   -20.060622   -1.0043472   -1.0066919   -418.50709 
    2400    421.52133    702.74272    704.60508    483.86953    312.96044    1.2837655   -1.1101635   -19.248752   -207.61684    -1.017096   -20.094934    1.2161682  -0.85421519   -9.3356328   -207.61374   -1.0731381   -9.9886366    197.73193     -1.04422   -20.106846   -1.0038777   -1.0056152   -418.50666 
    2500    421.52133    745.26503    716.96633    510.26003    313.95341    1.2768373   -1.1285445   -19.298715   -207.61329    -1.025193    -20.14783    1.2078621  -0.84926495   -9.3811992   -207.62345   -1.0282701   -10.013109    197.74122   -1.0009715   -20.135083   -1.0040604   -1.0042608   -418.50586 
    2600    421.52133    735.96085    739.41089    482.13228    314.16803     1.286203   -1.1694127   -19.287803   -207.59115  -0.97986241   -20.184074    1.1885551  -0.94599059   -9.4009165    -207.5692  -0.92640089    -10.09179    197.79913  -0.96355083   -20.161518   -1.0036049   -1.0036634   -418.50567 
    2700    421.52133    739.77439    744.78284    437.73908    315.10907    1.2713394   -1.1851375   -19.245951   -207.56532  -0.96460918   -20.165896    1.1764617  -0.95165762    -9.347576   -207.53446  -0.97780474     -10.0057    197.84373   -0.9606688   -20.132921   -1.0022484   -1.0032818   -418.50502 
    2800    421.52133    765.10319    765.81438    460.32394    316.43171    1.2287366   -1.1771797   -19.222307   -207.56509   -1.0184785   -20.125643     1.128227  -0.90918069   -9.3238769   -207.52986   -1.0159903   -9.9545181    197.79913  -0.93178154    -20.15481   -1.0013892   -1.0035296    -418.5031 
    2900    421.52133    863.61209    825.62249    597.34587    316.69769    1.3172314   -1.1071416    -19.14975   -207.59886   -1.0674526   -20.129895    1.2421573  -0.79214415   -9.2145528   -207.58342    -1.058167   -9.9620951    197.80162  -0.99191578   -20.121236   -1.0001584   -1.0026702   -418.50223 
    3000    421.52133    881.42185    818.68447    596.88069    317.76018    1.3126842   -1.0845468   -19.166065   -207.57027   -1.1147163   -20.101325    1.2238687  -0.79922798   -9.1837048    -207.5445   -1.1327257   -9.9287858    197.80571   -1.0803668   -20.092619   -0.9998879   -1.0017498   -418.50071 
    3100    421.52133    907.29066    841.00277    546.68279    317.67703    1.3086946    -1.107949   -19.140194     -207.605   -1.1549616   -20.004613     1.205549  -0.78478786    -9.179163   -207.61872   -1.2118851   -9.8696062     197.8191    -1.117054   -20.037227  -0.99871248    -1.002249    -418.4994 
    3200    421.52133    906.31925    860.83232    558.68577    318.18115    1.2900807   -1.1747185   -19.156818    -207.5753   -1.1488456   -20.030317      1.21745  -0.86078589   -9.2033242   -207.59522   -1.1840098    -9.909721    197.85131   -1.1573715   -20.080358  -0.99748262   -1.0015652   -418.49822 
    3300    421.52133    876.55297    812.16785    538.81268    318.62293    1.2797189   -1.1857614   -19.159269   -207.53164   -1.1574353   -19.993308    1.1609844  -0.91559369   -9.2362909   -207.52599   -1.1349253   -9.8811305    197.81356   -1.1535537   -20.011943  -0.99644464   -1.0010547   -418.49731 
    3400    421.52133    900.18608    875.05046    521.67723    319.19497     1.270152   -1.1593981   -19.062149    -207.5168   -1.1503687   -19.952359    1.1714196  -0.86717623   -9.1211266   -207.54537   -1.1764157    -9.805219    197.80734   -1.1370411   -19.960498  -0.99566199   -1.0002728   -418.49698 
    3500    421.52133    919.95584    850.25105    532.36081    320.35116    1.3003962   -1.1577823   -19.108271    -207.5459   -1.1127593   -20.000315    1.2370855  -0.89472831   -9.1278066   -207.55018   -1.1414941   -9.8570346    197.80743   -1.0553086   -19.910223  -0.99462661  -0.99955473   -418.49622 
    3600    421.52133    983.91596    930.77294    568.78511    321.06013    1.2798927   -1.1419374   -19.188078   -207.56489   -1.1267406   -19.937501    1.2235289  -0.92976178   -9.1994397   -207.57257   -1.1115086   -9.8234803    197.82781   -1.0697096   -19.901231  -0.99474406  -0.99937484   -418.49461 
    3700    421.52133    1020.1109    975.49726    629.80463    321.88273    1.3018971   -1.0779015   -19.221015   -207.57857   -1.0803116   -19.926035    1.2077118  -0.87991943   -9.2265925   -207.59055   -1.0663823   -9.7620177    197.81109   -1.0074767   -19.854989  -0.99589776  -0.99919248   -418.49337 
    3800    421.52133    980.90302    920.04953    554.31649    321.87883    1.3055642   -1.0204116   -19.192334   -207.56584   -1.0747019   -19.901699    1.1971072  -0.83821786   -9.2066544   -207.53777   -1.0616236   -9.7311565    197.75934  -0.99499109   -19.880036  -0.99560259  -0.99968347   -418.49227 
    3900    421.52133    1007.6145    965.54378    611.15005    322.37332    1.3117598   -1.0005587   -19.182034   -207.61619   -1.0374955   -19.828841    1.2116547  -0.81532246   -9.2738985   -207.60252  -0.99642619   -9.6529895    197.78815   -1.0117399   -19.840731   -0.9955823   -1.0000603   -418.49174 
    4000    421.52133    1022.7524    995.46812      615.433    323.85098    1.2790814   -1.0679632   -19.136016   -207.60191  -0.98146543   -19.797002    1.1412614  -0.85534524   -9.1266875   -207.60897  -0.98256014   -9.6152095    197.79205   -0.9957184   -19.887447  -0.99605332  -0.99994657   -418.49164 
    4100    421.52133    1071.1061    1004.5208    607.81147    324.51298    1.2633023   -1.0466595     -19.1356   -207.61687   -1.0250055   -19.738502    1.0997133  -0.84662003   -9.1307427   -207.66666   -1.0303521   -9.5772937    197.80886   -1.0524905   -19.884899  -0.99588583  -0.99952137    -418.4923 
    4200    421.52133    1080.1215    1003.7453    613.21831    325.64897    1.2796689  -0.97745887    -19.17612   -207.61679   -1.0110654   -19.754463    1.1404482  -0.67380008   -9.0838784   -207.66698   -1.0123082   -9.5551697    197.82153  -0.99008372   -19.896914  -0.99620776  -0.99991976    -418.4939 
    4300    421.52133    1132.8062    1103.9416    681.11545    325.81535    1.2670016   -1.0717641    -19.12497   -207.58604    -1.020506   -19.799762    1.1387882  -0.79924306   -9.0502741   -207.63086   -1.0402684   -9.6309459    197.78891  -0.97521177   -19.921786  -0.99641053   -1.0004904   -418.49443 
    4400    421.52133    1183.5672    1119.1578    728.01811    325.94953    1.2847574   -1.0516171   -19.012844   -207.58338   -1.0242965   -19.781068    1.1164224  -0.79134115   -8.9027633    -207.5813   -1.0391403   -9.6691046    197.74563  -0.94157212    -19.89406  -0.99627401   -1.0011541   -418.49457 
    4500    421.52133    1176.5789    1103.0461    723.45329    326.21992    1.3367884   -1.0085839   -19.000592   -207.65402     -1.01026   -19.841315    1.1944245  -0.71868471   -9.0083924   -207.62068  -0.96977794   -9.7159126    197.70948  -0.94843267   -19.877701  -0.99680246   -1.0022014   -418.49403 
    4600    421.52133    1259.0935    1196.6117    747.00842    328.15087    1.3770185  -0.98916572   -19.047995   -207.70357  -0.91411317   -19.921262    1.2620355  -0.71539728   -9.0777319   -207.66475  -0.91200814   -9.7788898    197.71844   -1.0159122   -19.848547  -0.99768549   -1.0025253   -418.49434 
    4700    421.52133    1251.6398    1199.3998    748.49424    328.12661    1.3943945  -0.96793994   -19.007449   -207.68856  -0.92010143    -19.88855    1.2664277  -0.63860589   -8.9987356   -207.68729  -0.89933539   -9.7551043    197.68375   -1.0378578    -19.78518  -0.99889854   -1.0022489   -418.49505 
    4800    421.52133    1275.5971    1221.1344    781.47178    329.69011    1.2882697   -0.9864517   -18.999094   -207.72061  -0.94570113   -19.862224    1.1445825  -0.67230733   -9.0338096   -207.72237   -1.0004175   -9.7247222    197.73124   -1.0155011   -19.684434   -1.0007222   -1.0024948   -418.49531 
    4900    421.52133    1271.8511    1246.2891    778.53879    329.44819    1.2576442   -1.0592542   -18.984161   -207.70383  -0.95691691   -19.824219    1.0771068  -0.70684473   -8.9382054   -207.69127     -1.00989   -9.6945338    197.73446  -0.99563073   -19.664075   -1.0024929   -1.0028233   -418.49524 
    5000    421.52133    1296.1622    1212.0396    786.16476    330.33852    1.2936959   -1.0053396   -18.972734   -207.66663   -1.0089118   -19.762799     1.102359  -0.66354504    -8.892554   -207.63385   -1.0141268   -9.5772478    197.73926   -1.0082401   -19.659845   -1.0044958   -1.0033975   -418.49502 
Loop time of 32.432 on 512 procs for 5000 steps with 346230 atoms

Performance: 26.640 ns/day, 0.901 hours/ns, 154.169 timesteps/s
99.9% CPU use with 512 MPI tasks x no OpenMP threads

MPI task timing breakdown:
Section |  min time  |  avg time  |  max time  |%varavg| %total
---------------------------------------------------------------
Pair    | 0.0020406  | 19.521     | 21.591     |  85.9 | 60.19
Neigh   | 0.00031543 | 0.34984    | 0.48478    |  14.2 |  1.08
Comm    | 0.074079   | 4.7772     | 11.866     |  72.8 | 14.73
Output  | 0.12068    | 0.1593     | 0.59815    |  19.7 |  0.49
Modify  | 0.031061   | 0.39889    | 0.90521    |  50.2 |  1.23
Other   |            | 7.226      |            |       | 22.28

Nlocal:    676.23 ave 758 max 0 min
Histogram: 16 0 0 16 0 5 11 0 2 462
Nghost:    3168.1 ave 3584 max 0 min
Histogram: 16 0 0 16 0 16 0 0 16 448
Neighs:    47601.4 ave 54254 max 0 min
Histogram: 16 0 16 0 0 15 1 0 13 451

Total # of neighbors = 24371919
Ave neighs/atom = 70.3923
Neighbor list builds = 125
Dangerous builds = 0


variable  com1_x equal "c_COM1x[1]"
variable  com1_y equal "c_COM1x[2]"
variable  com1_z equal "c_COM1x[3]"
variable  com2_x equal "c_COM2x[1]"
variable  com2_y equal "c_COM2x[2]"
variable  com2_z equal "c_COM2x[3]"
variable  com3_x equal "c_COM3x[1]"
variable  com3_y equal "c_COM3x[2]"
variable  com3_z equal "c_COM3x[3]"
variable  com4_x equal "c_COM4x[1]"
variable  com4_y equal "c_COM4x[2]"
variable  com4_z equal "c_COM4x[3]"
variable  com5_x equal "c_COM5x[1]"
variable  com5_y equal "c_COM5x[2]"
variable  com5_z equal "c_COM5x[3]"
variable  comall_x equal "c_COMall[1]"
variable  comall_y equal "c_COMall[2]"
variable  comall_z equal "c_COMall[3]"


fix          2 all print 100 "${com1_x}   ${com1_y}   ${com1_z}  ${com2_x}   ${com2_y}   ${com2_z} ${com3_x}   ${com3_y}   ${com3_z} ${com4_x}   ${com4_y}   ${com4_z} ${com5_x}   ${com5_y}   ${com5_z} ${comall_x}   ${comall_y}   ${comall_z}" file COM.data screen no
#-------------------------- Wave Propagation -------------------------
unfix        3temp
run          1000000
Memory usage per processor = 0.0537109 Mbytes
Step Lx Pxx Pyy Pzz Temp COM1x[1] COM1x[2] COM1x[3] COM2x[1] COM2x[2] COM2x[3] COM3x[1] COM3x[2] COM3x[3] COM4x[1] COM4x[2] COM4x[3] COM5x[1] COM5x[2] COM5x[3] COMall[1 COMall[2 COMall[3 
    5000    421.52133    1296.1622    1212.0396    786.16476    330.33852    1.2936959   -1.0053396   -18.972734   -207.66663   -1.0089118   -19.762799     1.102359  -0.66354504    -8.892554   -207.63385   -1.0141268   -9.5772478    197.73926   -1.0082401   -19.659845   -1.0044958   -1.0033975   -418.49502 
    5100    421.52133    1260.1632    1180.4997    729.70847    330.90719    1.3554822  -0.97709986    -18.93258   -207.64232  -0.97447627   -19.650483    1.2802489  -0.73032045   -8.8210596   -207.62746  -0.98661268   -9.4453943    197.73724   -1.0551814   -19.629247   -1.0063318   -1.0030255   -418.49577 
    5200    421.52133    1286.5122    1219.0827    743.43134    330.14693    1.3507923  -0.86049827   -18.887649   -207.68463  -0.96575576   -19.703188    1.3883658  -0.65971435   -8.7530196   -207.65492  -0.97815963    -9.540218    197.73676     -1.11256   -19.650498   -1.0081678   -1.0026534   -418.49652 
    5300    421.52133    1251.2395    1167.0537    688.21914    330.05367    1.3918003  -0.93444605   -18.838683   -207.70341  -0.98365288   -19.701063    1.4401573  -0.72242121   -8.7059264   -207.65542   -1.0070607    -9.518467    197.75459   -1.0588823   -19.647175   -1.0100038   -1.0022813   -418.49727 
    5400    421.52133    1203.3774    1137.2151    611.93941    329.87292    1.3431612  -0.92112224   -18.678533   -207.69844   -1.0143042   -19.666673    1.3726043  -0.70644069   -8.4618882   -207.66284   -1.0237499   -9.4812512    197.74495  -0.95305401   -19.648498   -1.0118397   -1.0019092   -418.49801 
    5500    421.52133    1239.8275    1097.5118    573.56235    329.05824    1.3869402  -0.93312101   -18.601662   -207.75407   -1.0348069   -19.683157    1.3898746  -0.64002023   -8.3968152   -207.74179   -1.0173146   -9.4921001    197.74809  -0.90523027   -19.715654   -1.0136757   -1.0015371   -418.49876 
    5600    421.52133    1152.8353    1080.8716    539.29203    329.43557    1.4161318  -0.95277362   -18.377128   -207.76651  -0.96074622   -19.686737    1.3954372  -0.69777137   -8.1703242    -207.7343  -0.91421218   -9.4716827    197.75868  -0.88955165   -19.737375   -1.0155117    -1.001165   -418.49951 
    5700    421.52133    1132.5037    1029.0619    424.94844    330.00837    1.5062397  -0.93183429   -18.237635   -207.73452   -0.9263975   -19.681214    1.4585152  -0.68528974   -8.0536143   -207.75972  -0.88090093   -9.4641672    197.71014  -0.90225891   -19.770123   -1.0173477   -1.0007929   -418.50026 
    5800    421.52133    1108.7933    1022.4851     430.0853    329.17769    1.4242025   -0.9390787   -18.203044   -207.75372  -0.93823179   -19.743831    1.4455706  -0.73978568   -8.0102689   -207.77804  -0.92881839   -9.5724048    197.72941  -0.93522565   -19.777222   -1.0191837   -1.0004209   -418.50101 
    5900    421.52133    1069.4912    1002.4291    384.68264    329.14207     1.409481  -0.96295337   -18.150505   -207.73262  -0.91830068   -19.784122    1.4139451  -0.85853419   -7.9390746   -207.77185  -0.91134647   -9.6407195    197.73145  -0.90323847   -19.789327   -1.0210196   -1.0000488   -418.50175 
    6000    421.52133    1046.9032    986.84504     371.0152     329.2708    1.3612661  -0.95817511   -18.094068   -207.69816  -0.95436811   -19.801212    1.3061419  -0.85563686   -7.9046505   -207.69989   -1.0126187   -9.6429445    197.68555  -0.92814999    -19.80594   -1.0228556   -0.9996767    -418.5025 
    6100    421.52133    1041.0771    949.67298     347.9043    329.41642    1.3727198  -0.93981371   -18.016801   -207.78046  -0.99290097   -19.799442    1.3171957  -0.82002757   -7.9159624   -207.80925    -1.028141    -9.624356     197.6947  -0.94785462   -19.780116   -1.0246916  -0.99930461   -418.50325 
    6200    421.52133    1087.1647    950.41991    335.47718    328.86156    1.4210167  -0.93462578   -17.897088   -207.79894  -0.98395939   -19.815231    1.3346907  -0.85153281   -7.8108381   -207.83422  -0.97100543   -9.6081131    197.72303  -0.96646064   -19.765085   -1.0265276  -0.99893253     -418.504 
    6300    421.52133    1053.5304    944.98348    291.89139    329.27379    1.3465505  -0.93871432   -17.775489   -207.80433  -0.98317179   -19.858745    1.2478686  -0.73193983   -7.7179795   -207.80752  -0.96738448   -9.6425045    197.71939  -0.98580547   -19.813461   -1.0283636  -0.99856044   -418.50474 
    6400    421.52133    1043.0854    935.34483    232.02797    329.29428    1.2789641   -1.0342383   -17.642361   -207.81917   -0.9294933   -19.883026    1.1895673   -0.7196565   -7.5474918   -207.84894  -0.89257922   -9.6897795    197.73504  -0.99319234   -19.791969   -1.0301996  -0.99818836   -418.50549 
    6500    421.52133     1003.511    932.22336    273.25116    329.04366    1.2592272   -1.1248075   -17.650249   -207.78479  -0.90161556   -19.862022    1.2570284  -0.84849805   -7.4780768   -207.78013  -0.87339122   -9.6332972    197.75914   -1.0146428   -19.768066   -1.0320355  -0.99781628   -418.50624 
    6600    421.52133    982.01525    936.84607    247.96145    329.59538    1.2527066   -1.0831099     -17.6024    -207.7292  -0.88581881   -19.870576    1.2231944  -0.76763646   -7.4516343    -207.7349  -0.83578479   -9.6555758    197.70313   -0.9829024   -19.764392   -1.0338715  -0.99744419   -418.50699 
    6700    421.52133    1005.7358    923.48946    253.95831    329.55434    1.2512324   -1.0716952   -17.546689   -207.73854  -0.91533799   -19.811743    1.2331529  -0.77858489   -7.4123552   -207.72344  -0.91883011   -9.6698613     197.6807  -0.95871478   -19.804357   -1.0357075  -0.99707211   -418.50773 
    6800    421.52133    989.73709     967.7581    222.26589    328.82265    1.2289624   -1.0052441   -17.433246   -207.75188  -0.94519827   -19.806425    1.1470435   -0.7075083    -7.295029   -207.70415  -0.95963462     -9.69996     197.6872  -0.96277248    -19.81167   -1.0375435  -0.99670002   -418.50848 
    6900    421.52133    974.74534    918.95703    201.10158    328.95111    1.2667476   -1.0159355   -17.283221   -207.76846  -0.97341558   -19.776191    1.1317918  -0.82863434   -7.1320853   -207.70686   -1.0197949   -9.6193161    197.70616  -0.99050853    -19.87827   -1.0393795  -0.99632794   -418.50923 
    7000    421.52133    950.65461    891.73651    198.86248    329.45475    1.2182421   -1.0094763   -17.163811   -207.72615  -0.98808164   -19.731661    1.1062062  -0.80651997   -7.0095196   -207.71435   -1.0487728   -9.5121714    197.73523   -1.0047274   -19.854959   -1.0412154  -0.99595586   -418.50998 
    7100    421.52133    921.92344    883.62176    189.83813    329.35755    1.1895135   -0.8420714   -17.051372   -207.72811   -1.0232566   -19.737096     1.093035   -0.6796597   -6.8415516   -207.74759   -1.0539761   -9.5070227    197.69112    -1.000592   -19.862525   -1.0430514  -0.99558377   -418.51073 
    7200    421.52133      897.967    884.05836    148.22728    329.87246    1.1599698  -0.85511226   -16.960584   -207.72434   -1.0470197   -19.747028    1.0853246  -0.66625267   -6.7096062   -207.76274   -1.0056798   -9.5109962    197.69195  -0.96021582   -19.854078   -1.0448874  -0.99521169   -418.51147 
    7300    421.52133    919.41296    857.02391    126.81442    329.74874    1.1458915  -0.87109031   -16.928256   -207.74631   -1.0248631   -19.774655    1.0919092   -0.7270641   -6.7327911   -207.78738   -1.0060271   -9.6070573    197.69103   -1.0013474   -19.855891   -1.0467234   -0.9948396   -418.51222 
    7400    421.52133    938.38511    860.35324    163.63561    329.30613    1.1689547   -0.8939408    -16.86807   -207.75472  -0.98586835   -19.844386    1.1050498  -0.74898054   -6.6998111   -207.78752  -0.94570839   -9.6765373    197.71919  -0.97344269   -19.867529   -1.0485594  -0.99446752   -418.51297 
    7500    421.52133     922.4366    854.81723    139.99856    329.43807    1.1818053  -0.86698805   -16.807654   -207.74249  -0.99286609   -19.884152    1.1018699  -0.62609463   -6.5777322    -207.8107  -0.96632729   -9.7224268    197.64979   -1.0047765    -19.86707   -1.0503953  -0.99409544   -418.51372 
    7600    421.52133    909.09839    851.33601    131.87761    329.14589    1.2588442  -0.94772469   -16.847657   -207.76044   -1.0228855   -19.910213    1.2390925  -0.76176155   -6.7240631   -207.82432  -0.99339509   -9.7748889    197.65063   -1.0052932   -19.872701   -1.0522313  -0.99372335   -418.51446 
    7700    421.52133    931.72324    847.78714    162.17409    328.97427    1.2489792  -0.84044961   -16.834302   -207.71179   -1.0045416   -19.955603     1.229717  -0.67097664   -6.7704585    -207.7293   -1.0067719   -9.8039626    197.62327  -0.92956356    -19.95862   -1.0540673  -0.99335127   -418.51521 
    7800    421.52133    961.62896    872.43299    155.35515    329.05055    1.2479884  -0.87027515   -16.881161   -207.73719  -0.99116948   -19.961277    1.2224341  -0.65201297    -6.692731    -207.7279   -1.0018598   -9.7885772    197.68771  -0.97131283   -19.989763   -1.0559033  -0.99297918   -418.51596 
    7900    421.52133    883.31018    864.23685    127.45459    329.99779    1.2121256   -0.8914207   -16.913919   -207.67537  -0.91909796   -20.030612    1.1474929  -0.61314274   -6.7358279   -207.66805  -0.94162978   -9.8886578    197.65662  -0.98479392    -20.01067   -1.0577393   -0.9926071   -418.51671 
    8000    421.52133    877.72412    833.39498    106.53721    329.84786    1.1972855  -0.88731291   -16.870126   -207.69182  -0.91545069   -20.076424    1.1274198  -0.55633261   -6.7493097   -207.65815   -0.9137097   -9.8941688    197.70677  -0.95645739   -20.027769   -1.0595753  -0.99223502   -418.51745 
    8100    421.52133    911.92589    888.50145    100.08832    328.85601    1.2400587  -0.90140411   -16.868044   -207.76606  -0.86946851   -20.122673    1.2407636  -0.66633995   -6.6694358    -207.7612  -0.88828618   -9.9239432     197.6933  -0.87404246   -20.076503   -1.0614112  -0.99186293    -418.5182 
    8200    421.52133    895.14132    824.30202    51.713675    329.82059    1.1894545  -0.83043376   -16.955351   -207.76846  -0.85968023   -20.071209    1.1718092   -0.6630453   -6.7764739   -207.75251  -0.85334008   -9.8982987    197.71628  -0.81415067   -20.102133   -1.0632472  -0.99149085   -418.51895 
    8300    421.52133    895.72913    839.57424    80.792804    329.43697    1.2717522  -0.87560908   -16.942005   -207.73145  -0.78678819   -20.046168    1.3032169  -0.72218849    -6.812411   -207.73221  -0.77476318   -9.8901194    197.70171  -0.77814959   -20.078978   -1.0650832  -0.99111876    -418.5197 
    8400    421.52133    872.60946    853.52859    74.083202    329.43809    1.2556822  -0.85853708   -16.913839   -207.76255  -0.69204506   -20.065036    1.3106296  -0.65972542   -6.8006113   -207.71787   -0.6978932    -9.922555    197.70679  -0.83273959   -20.031097   -1.0669192  -0.99074668   -418.52045 
    8500    421.52133    846.37173    861.73099    3.1011237    329.49709    1.2472072  -0.85870834   -16.926941   -207.77999  -0.65220548   -20.128449     1.306321  -0.58095095   -6.7538872   -207.79157    -0.585142   -9.9450033    197.70761   -0.8120495   -19.981057   -1.0687552   -0.9903746   -418.52119 
    8600    421.52133    875.78247     827.3705    38.221867    329.60952    1.2016117  -0.79064375   -17.029934   -207.75106  -0.68978187    -20.06132    1.2273432  -0.57157023   -6.9255392   -207.79344  -0.65577213   -9.8614066    197.71806   -0.7550417    -19.95389   -1.0705911  -0.99000251   -418.52194 
    8700    421.52133    897.05316    836.14959    65.273632    329.36162    1.2090986  -0.72902415   -17.049939   -207.74194  -0.71505621    -20.05123    1.1647739   -0.5381186   -7.0462207   -207.74259  -0.75565837   -9.8730068    197.74591  -0.69546914   -19.962444   -1.0724271  -0.98963043   -418.52269 
    8800    421.52133    895.20732    811.90743    7.9203766    329.59804    1.1483644  -0.68493381   -17.140205   -207.73808   -0.7658534   -20.052164    1.0679594  -0.47606127   -7.0912528   -207.72049   -0.7952932   -9.8753997    197.76225  -0.70622749   -19.969022   -1.0742631  -0.98925834   -418.52344 
    8900    421.52133    875.32386      762.819     11.96764    329.33905    1.1958465  -0.67298355   -17.179624   -207.75298  -0.76477339   -20.038687    1.0950365  -0.52534162   -7.0506369   -207.74032  -0.76613296   -9.8128166    197.76672  -0.70480225   -19.975035   -1.0760991  -0.98888626   -418.52418 
    9000    421.52133    839.60683    786.35069   -37.278736    329.45874    1.1481657  -0.80252427   -17.158878   -207.72867  -0.76234055   -20.017758    1.0588984  -0.64917491   -6.9708673   -207.70308  -0.68587188   -9.7834044    197.69248   -0.7347377   -19.955562   -1.0779351  -0.98851418   -418.52493 
    9100    421.52133    852.23336    762.74818   -117.78185    329.75746    1.2016126  -0.96953738    -17.12171    -207.7648  -0.79375905   -19.975601    1.1380922  -0.80414326   -6.9141087   -207.76495  -0.74532857   -9.7684173    197.74764  -0.77308489   -19.975769   -1.0797711  -0.98814209   -418.52568 
    9200    421.52133    780.65011    740.48298   -100.18505    329.54284    1.2689449   -1.0572747   -17.053822   -207.79129  -0.84510602   -19.963522    1.2295646  -0.85476622   -6.8599707   -207.79876  -0.84073283   -9.7834173    197.70653  -0.78020142   -19.992143    -1.081607  -0.98777001   -418.52643 
    9300    421.52133    810.91128    729.97957   -144.05262    329.44927    1.2870604   -1.0377561   -17.013665   -207.79343  -0.89913942   -19.897765    1.2400553  -0.83081222   -6.8459941   -207.84778  -0.92674227   -9.7608092     197.6397  -0.78576797   -19.975221    -1.083443  -0.98739792   -418.52717 
    9400    421.52133    812.02673    723.10198   -110.72482    329.75022    1.2471865   -1.0540736   -17.110633   -207.82824  -0.86550716   -19.864297    1.1080561  -0.87416901   -7.0651891   -207.84945  -0.92131539   -9.6964093    197.64192  -0.84705163   -19.981787    -1.085279  -0.98702584   -418.52792 
    9500    421.52133    822.40822    737.56247   -123.76975    329.54799    1.2997451   -1.0089811   -17.271114   -207.87795  -0.86850022   -19.843616    1.1962923  -0.79324677   -7.1833904   -207.84236  -0.88910091   -9.6508879    197.69835  -0.87836445   -19.901007    -1.087115  -0.98665376   -418.52867 
    9600    421.52133    785.82399    716.40266   -130.38397    329.14835    1.3029377   -0.9521607   -17.312648   -207.82161  -0.81599491   -19.806692     1.175648  -0.70293111   -7.2219456   -207.81925  -0.81020001   -9.5842691    197.68593  -0.89841112   -19.831824    -1.088951  -0.98628167   -418.52942 
    9700    421.52133    773.03895    650.66622    -216.3435    330.28639    1.2602762  -0.82910582   -17.482276   -207.74758  -0.83838742   -19.754883    1.1720822  -0.61550912   -7.4211481   -207.76126  -0.83620982   -9.5219303    197.69174  -0.91254877   -19.744573   -1.0907869  -0.98590959   -418.53017 
    9800    421.52133    805.06357    699.60927   -231.51775    329.73918    1.2494319  -0.89931256   -17.644922   -207.75303  -0.81079035   -19.681476    1.1978504  -0.69617163    -7.533575   -207.80679  -0.83631665   -9.4650038    197.74896  -0.83769889   -19.691594   -1.0926229   -0.9855375   -418.53091 
    9900    421.52133    809.31942    681.97769   -229.14538    329.88404    1.2226345  -0.87561388   -17.748811   -207.76714  -0.88771293   -19.648594    1.1716941   -0.6108283   -7.6578531     -207.819  -0.89529296   -9.4648217    197.75097  -0.80854579   -19.574387   -1.0944589  -0.98516542   -418.53166 
   10000    421.52133    780.27524    722.00885   -168.81418    329.74274    1.2462201  -0.89308225   -17.745702   -207.81571  -0.88870951   -19.608728    1.1860346  -0.60050365   -7.6496109   -207.79552  -0.89780262   -9.3976539    197.74511  -0.80703456   -19.512673   -1.0962949  -0.98479334   -418.53241 
   10100    421.52133    826.72145    728.94738   -201.06508    330.01357    1.2350902  -0.92399318    -17.89675   -207.80765  -0.89359509   -19.616884    1.1749701  -0.70230696   -7.8610337   -207.77501   -0.8877764   -9.4281048    197.69856  -0.84749345   -19.465038   -1.0981309  -0.98442125   -418.53316 
   10200    421.52133    760.27722    722.16326   -201.72187     329.8958    1.2928968  -0.94544175   -17.900612   -207.79996  -0.86015591   -19.586672    1.2215345  -0.76906313   -7.8432018    -207.7239   -0.8439189   -9.3772816    197.69864  -0.86659257   -19.413901   -1.0999669  -0.98404917    -418.5339 
   10300    421.52133    749.33917    691.44659   -267.52427    329.94259    1.2852204  -0.86388191   -17.961041   -207.82007  -0.86157805   -19.507196    1.2497346  -0.68695399   -7.9194696   -207.78165  -0.92531788   -9.3139955    197.65629  -0.83913841   -19.471608   -1.1018028  -0.98367708   -418.53465 
   10400    421.52133    774.84634    661.60389   -260.80586    329.84994    1.2328856   -0.8562438   -17.950258   -207.78792  -0.91901319   -19.440742    1.1624031  -0.77029349   -7.8938904   -207.76989  -0.96372267   -9.2321945    197.61967  -0.83522306   -19.465538   -1.1036388    -0.983305    -418.5354 
   10500    421.52133     711.4557    635.25124   -306.38428    330.11732    1.2134947  -0.90866117   -17.976635   -207.81427  -0.91540674   -19.406025    1.1349457  -0.82062213   -7.9026395    -207.7798   -0.9481204   -9.2189252    197.63825  -0.75306164   -19.466296   -1.1054748  -0.98293292   -418.53615 
   10600    421.52133    748.13633    667.45514   -272.55338    329.02413    1.2005188    -1.009831   -18.002801   -207.75427  -0.84897022   -19.380549    1.1309177  -0.87886105   -7.8292949    -207.7462  -0.86861401    -9.199894    197.61042  -0.84605505   -19.341582   -1.1073108  -0.98256083   -418.53689 
   10700    421.52133    693.86862    605.22502   -369.84108    329.35801    1.2028736  -0.99704689   -17.943562   -207.81947  -0.80315926   -19.395328    1.1933309  -0.78447684    -7.803865   -207.84441  -0.80642649    -9.195209    197.62788  -0.81642549   -19.250508   -1.1091468  -0.98218875   -418.53764 
   10800    421.52133    643.96576    571.24918   -433.84979    329.89428    1.2092467   -0.9802855   -17.878085   -207.82732  -0.77432872   -19.325415    1.1621374  -0.73212924   -7.7489348   -207.83346  -0.79119524   -9.1310214    197.58647  -0.79391603   -19.191318   -1.1109827  -0.98181667   -418.53839 
   10900    421.52133    635.22287    550.55085   -455.66877    329.17827    1.1836996   -1.0040571   -17.876407   -207.80308  -0.77432545   -19.244624     1.057864  -0.74166582   -7.8157994   -207.75469  -0.74886184   -9.0736089     197.5749  -0.75128339   -19.188052   -1.1128187  -0.98144458   -418.53914 
   11000    421.52133    574.38695    519.75251   -537.80387    329.77974     1.196138   -1.0830611   -17.858528   -207.87271  -0.75434804   -19.146069    1.0487039  -0.84712598   -7.7878682   -207.83546  -0.69643323   -8.9826823    197.56217   -0.7478049   -19.206138   -1.1146547   -0.9810725   -418.53989 
   11100    421.52133    574.34714    502.13417   -598.47228    329.15198    1.1500623   -1.0385046   -17.885426   -207.88383  -0.70586609   -19.073842    1.0455827  -0.80775724    -7.806131   -207.85706  -0.62901447    -8.931462    197.56555  -0.77811787   -19.136689   -1.1164907  -0.98070041   -418.54063 
   11200    421.52133    534.15557    458.02947   -708.40947    329.39632    1.1635714   -1.0421135   -17.976668   -207.86225  -0.70013881   -19.057816    1.0849455   -0.8155303   -7.8109283   -207.83753  -0.69023296   -8.8536674    197.53861  -0.76062381   -19.083484   -1.1183267  -0.98032833   -418.54138 
   11300    421.52133    482.13835    421.50688   -738.23195    328.97835    1.0973593   -1.0212747   -18.001725   -207.86522  -0.72561357   -19.077182   0.97610705  -0.76534438   -7.8221975   -207.82655  -0.73424425   -8.8364341    197.53805  -0.73308602   -19.064854   -1.1201626  -0.97995625   -418.54213 
   11400    421.52133    468.77154    410.55716   -715.64021    328.76618    1.0689486  -0.97661108    -18.05998   -207.86842  -0.78713811   -19.066387   0.98809602  -0.70570722   -8.0291625   -207.83345  -0.77924107   -8.8620076    197.52461  -0.74906684   -19.046161   -1.1219986  -0.97958416   -418.54288 
   11500    421.52133    431.57868    400.09127   -747.60752    329.12801    1.0533295  -0.97012758    -18.07414   -207.85224  -0.84159958   -19.075596    1.0358644  -0.75696005   -8.0730922   -207.84697  -0.78767144   -8.9218677    197.47334   -0.7173742   -19.040439   -1.1238346  -0.97921208   -418.54362 
   11600    421.52133    482.54231    436.10247   -784.46996     328.8055    1.0354953  -0.86146724   -17.989423   -207.88793  -0.86959553   -19.012877   0.97659226  -0.64082841   -7.9797272   -207.86005  -0.84833001   -8.8891562    197.47002  -0.78390335   -19.056106   -1.1256706  -0.97883999   -418.54437 
   11700    421.52133    442.95556    401.00294   -799.94095     329.1703    1.0692861  -0.90013978   -18.078638   -207.91605  -0.79874599   -19.004455    1.0229054  -0.69863227   -8.0451525     -207.929    -0.784576   -8.8555952    197.44491  -0.87363024   -19.075829   -1.1275066  -0.97846791   -418.54512 
   11800    421.52133    447.02941    375.35555   -810.50238    329.31942    1.1039235  -0.86041211   -18.054526   -207.94401  -0.81313486   -18.996038    1.0240806  -0.67661385   -7.9089036   -207.93304  -0.81057174   -8.8067741    197.45885  -0.88004526   -19.169901   -1.1293426  -0.97809583   -418.54587 
   11900    421.52133    444.19637    342.87794   -816.55119    329.51778    1.0224527   -0.8849041   -18.074703   -207.91289  -0.81785392   -19.055677   0.98559815   -0.7096819   -7.9334861   -207.93082  -0.86280105   -8.8644301    197.50198  -0.87805227    -19.19708   -1.1311785  -0.97772374   -418.54661 
   12000    421.52133    433.97551    386.89694    -757.9869    329.81763   0.98802759  -0.87855611   -18.050832    -207.8694  -0.78708025   -19.139235   0.91472896  -0.66437477   -7.9244557   -207.95887  -0.84751126   -8.9175385    197.54609  -0.87974348   -19.180787   -1.1330145  -0.97735166   -418.54736 
   12100    421.52133    472.33101    442.49241   -718.58683    329.87789    1.0024566  -0.88288781   -17.990515   -207.83079  -0.77770481   -19.264567   0.88528885  -0.62554936   -7.8628319   -207.86808  -0.78034122   -9.0485659    197.57249  -0.88429614   -19.157418   -1.1348505  -0.97697957   -418.54811 
   12200    421.52133    543.62601    456.83593   -578.52234    329.63672    1.0583602  -0.83101656   -18.056416   -207.86116  -0.82286459   -19.347957   0.96471998  -0.62828044   -7.9891141   -207.86125  -0.86173219   -9.2048155    197.53993  -0.84038159   -19.197746   -1.1366865  -0.97660749   -418.54886 
   12300    421.52133    548.10694    515.47017   -522.66434    329.54046    1.0123003  -0.85301573   -17.994006   -207.90142  -0.85203347   -19.370196   0.90184141  -0.66075629    -7.897924   -207.87271  -0.90278333   -9.2088552    197.52372  -0.80520177   -19.253499   -1.1385225  -0.97623541   -418.54961 
   12400    421.52133     582.2579    539.96558   -490.03495    329.26762    1.0140421  -0.89583307   -18.050208   -207.90144  -0.90235986   -19.356993   0.97540437  -0.72214872   -7.9838913   -207.92667  -0.90430109    -9.216144    197.46384  -0.81021539   -19.337645   -1.1403584  -0.97586332   -418.55035 
   12500    421.52133    651.60098    596.84857   -442.58427    329.67828    1.0790322  -0.91945791   -18.026872   -207.93176   -0.9110743   -19.382492    1.0312955  -0.73142928   -7.9624144   -207.93567  -0.87114856   -9.2357487    197.42783  -0.87082908   -19.443324   -1.1421944  -0.97549124    -418.5511 
   12600    421.52133    656.93952    579.45466   -334.30573     329.3619    1.0573458  -0.93421445   -17.965003   -207.93695  -0.85937723   -19.417307    1.0232978  -0.74512684   -7.9786985   -207.93438  -0.81213148   -9.3090145    197.43625  -0.90430459   -19.488164   -1.1440304  -0.97511915   -418.55185 
   12700    421.52133    705.90808     647.7273   -331.74155    329.33632    1.0846947  -0.94755179   -17.980332    -207.9496  -0.94197136   -19.478631     1.035995  -0.72272929   -7.8962145   -207.92546  -0.94667437   -9.3490238    197.43896  -0.90007377    -19.48949   -1.1458664  -0.97474707    -418.5526 
   12800    421.52133    740.31062    660.53328   -299.84528    329.64371    1.0363233  -0.90558796   -17.967486   -207.92016  -0.99370487   -19.466083    1.0183712  -0.61788636   -7.8336418   -207.89522   -1.0136121   -9.3064674    197.45494  -0.92353248   -19.422503   -1.1477024  -0.97437499   -418.55334 
   12900    421.52133    682.02514     675.0048    -244.8499    329.91149    1.0227775  -0.81350804   -17.885086   -207.90437  -0.90318528   -19.488266    1.0083052     -0.61853   -7.7808255   -207.89598   -0.8594093   -9.3241942    197.50106  -0.91765313   -19.397293   -1.1495384   -0.9740029   -418.55409 
   13000    421.52133    714.67562    685.67539   -243.08592    329.97472    1.0403623  -0.75461359   -17.896513   -207.91519  -0.84706011   -19.442172    1.0057259  -0.54784087   -7.8330576   -207.93515  -0.83645961   -9.1986585    197.52947  -0.98418813   -19.374078   -1.1513743  -0.97363082   -418.55484 
   13100    421.52133     725.4274    704.09655   -245.41678    329.24834    1.0338869  -0.82131533   -17.947382   -207.94563  -0.84034598   -19.345333   0.97112329  -0.59705952   -7.8769201   -207.93066  -0.86956533   -9.1413498    197.54137  -0.96953861   -19.287406   -1.1532103  -0.97325873   -418.55559 
   13200    421.52133    766.70444    692.22338      -256.47    329.47361   0.98474284  -0.81813054   -17.885036   -207.98768   -0.8733395   -19.324553   0.92947408  -0.63382109   -7.8340496   -207.98515   -0.8663438   -9.1323143    197.50884  -0.90121742   -19.310537   -1.1550463  -0.97288665   -418.55633 
   13300    421.52133    729.68937    701.14836    -255.3386     330.2599    1.0187687  -0.77442809   -17.860813   -207.94067  -0.94832358    -19.26475    0.9769475  -0.59014668   -7.7645432   -207.91584  -0.87925264   -9.0672477    197.51287  -0.82661141   -19.240357   -1.1568823  -0.97251457   -418.55708 
   13400    421.52133    726.25335    715.83737   -204.55551    329.78712    1.0212364  -0.79254309   -17.837403   -207.93806  -0.93113888     -19.2299   0.99188655  -0.56422997    -7.819541   -207.89773  -0.87479993   -9.0198666    197.48146   -0.8472706   -19.220324   -1.1587183  -0.97214248   -418.55783 
   13500    421.52133    755.71419     727.5935    -209.5553    329.49717    1.0565955  -0.83799047   -17.780102   -207.93803   -0.9183174   -19.297252    1.0041854  -0.59183783   -7.7112225    -207.9107  -0.91686788   -9.0900722    197.46899  -0.86562743   -19.167406   -1.1605542   -0.9717704   -418.55858 
   13600    421.52133    775.02782    702.46827   -234.45943    329.77664     1.101992  -0.84027726   -17.752478   -207.91133  -0.87934962   -19.256942      1.04168  -0.58459947   -7.7335888   -207.89676  -0.87683444   -9.0460384    197.46388  -0.90026302   -19.213314   -1.1623902  -0.97139831   -418.55933 
   13700    421.52133     759.6533    689.59078   -218.58933    330.43495    1.1226133  -0.87824353   -17.749456   -207.91241  -0.89603451    -19.25662    1.0865484  -0.62426596   -7.6576354   -207.91069   -0.9055601   -9.1023139    197.48859  -0.95824605   -19.274074   -1.1642262  -0.97102623   -418.56007 
   13800    421.52133    784.30835    748.46553   -150.28742    329.92897    1.1092384  -0.96864522   -17.790381   -207.90327   -0.9909474   -19.235261    1.0721064  -0.69305162   -7.7074062   -207.94325  -0.97317708   -9.0576609    197.49104  -0.94735232    -19.32254   -1.1660622  -0.97065415   -418.56082 
   13900    421.52133    757.03605    755.06276   -140.58398     329.7343    1.0760237  -0.93958803   -17.758255   -207.96193   -1.0969545   -19.331614    1.0267261  -0.74091095   -7.7095108   -207.97383   -1.0757057   -9.1037096    197.47464  -0.99842418   -19.364739   -1.1678982  -0.97028206   -418.56157 
   14000    421.52133    795.86234    735.90139   -150.20057    329.97531    1.0230295  -0.88331509   -17.771598   -207.96573   -1.1555929   -19.374524    0.9263494  -0.63985592   -7.7195973    -207.9523   -1.2104409   -9.1505464    197.43128   -1.0643522   -19.397035   -1.1697341  -0.96990998   -418.56232 
   14100    421.52133     852.6941    767.30281   -102.00028    329.52343   0.98851292  -0.86219624   -17.800676   -207.94233   -1.1241525   -19.374297   0.93516073  -0.52451721   -7.7925161   -207.95032   -1.1782049   -9.1961254      197.449   -1.1507171   -19.361967   -1.1715701  -0.96953789   -418.56306 
   14200    421.52133    822.04148    785.45259   -149.31165    329.72538    1.0322016  -0.89318241   -17.726233   -207.96622   -1.1075431   -19.410205   0.97962788  -0.62153662   -7.7485491    -207.9493     -1.15989   -9.2719656    197.49946   -1.1750758   -19.347529   -1.1734061  -0.96916581   -418.56381 
   14300    421.52133    856.71568     759.8649   -94.076468    330.14449    1.0060887  -0.97217982   -17.609389    -208.0148   -1.1390951   -19.429391   0.96898692  -0.73499874   -7.5902633   -207.98551   -1.1873216   -9.2801021    197.46371   -1.1276141   -19.294815   -1.1752421  -0.96879373   -418.56456 
   14400    421.52133    843.06319    769.35088   -129.18736     329.9621   0.98113104  -0.90165649   -17.604629   -208.02612   -1.1344288    -19.41804   0.92659538  -0.74120431   -7.5258217   -207.99052   -1.1573286   -9.2019655    197.40136    -1.069588   -19.286408   -1.1770781  -0.96842164   -418.56531 
   14500    421.52133    807.24099    750.18451   -133.48034    330.03386    1.0164619  -0.92678351   -17.576895   -208.00902   -1.1026631   -19.388888   0.97479758  -0.74988327   -7.4937881   -207.99565   -1.1156875   -9.1809313     197.4073   -1.1239579   -19.370948   -1.1789141  -0.96804956   -418.56605 
   14600    421.52133    796.67902    744.38959   -105.71173    330.07521     1.031768   -1.0088325   -17.557416   -208.02343   -1.0623875   -19.326783   0.99005475  -0.83129877   -7.4703954   -208.00484    -1.034008   -9.1137771     197.3917   -1.1283155   -19.356921     -1.18075  -0.96767747    -418.5668 
   14700    421.52133    812.66141     743.6822   -116.39362    330.11609    1.0530282   -1.0940694   -17.537715   -208.02453  -0.99705309   -19.385325    1.0167583   -0.9257861   -7.5098217   -208.07944  -0.94399474   -9.1624991    197.38785   -1.1346334   -19.382353    -1.182586  -0.96730539   -418.56755 
   14800    421.52133    798.80717    724.36103   -91.634336    330.62133    1.0807506   -1.0574102     -17.5768   -208.03407  -0.94962266   -19.378684    1.0530911  -0.85064647   -7.5520782   -208.09153  -0.94403489    -9.216717    197.39001   -1.0571402     -19.3753    -1.184422  -0.96693331    -418.5683 
   14900    421.52133    837.84359    772.88341   -82.136828    329.88271    1.0218608  -0.98052934   -17.491326   -207.99762  -0.97065341   -19.374641    1.0151268  -0.85870328   -7.4304074   -208.03657  -0.97762417   -9.2153822    197.42581   -1.0088506   -19.433057    -1.186258  -0.96656122   -418.56905 
   15000    421.52133    898.86912    820.24576   -17.541962    329.30633   0.97298433  -0.89762615    -17.43446   -207.98443  -0.86925445   -19.421929   0.94554939  -0.73737134   -7.3309421   -207.98901  -0.94018998   -9.2343981    197.45446  -0.88002874   -19.504259    -1.188094  -0.96618914   -418.56979 
   15100    421.52133    894.45322    759.45284   -22.344635    329.93924      1.06916  -0.98568093   -17.405694   -207.94889  -0.83584413   -19.447296    1.0466102  -0.85078496   -7.3361658     -207.958  -0.89283757   -9.2274312    197.47793   -0.8884556   -19.565249   -1.1899299  -0.96581705   -418.57054 
   15200    421.52133    888.18111    819.03884   -37.530683     329.7644    1.0541539  -0.90369222   -17.444809   -207.90608  -0.80642362   -19.472287   0.99999221  -0.72394812   -7.4502633   -207.88807  -0.84279602     -9.24804     197.4783   -0.8904051    -19.58975   -1.1917659  -0.96544497   -418.57129 
   15300    421.52133    873.23561    856.09979    3.2897545    329.88475    1.0578442  -0.88878524   -17.446964   -207.92494  -0.78962402   -19.513545    1.0189374   -0.6332756   -7.4398846   -207.94904  -0.81702748   -9.2681117    197.49597  -0.83492035   -19.624765   -1.1936019  -0.96507289   -418.57204 
   15400    421.52133    881.76878    861.37807   -12.620822    329.77348    1.0606676  -0.93838068   -17.488115   -207.94626  -0.81238972   -19.612682    1.0038602  -0.75811731   -7.4883581   -207.94285  -0.79110287   -9.4096169    197.48745  -0.75843336   -19.616097   -1.1954379   -0.9647008   -418.57278 
   15500    421.52133    884.35694    832.55713   -13.288209    330.19607    1.0653244  -0.90007899    -17.44068    -207.9394  -0.83017344   -19.630483     1.014691   -0.7032767   -7.4481917   -207.92874  -0.82169737   -9.4685593    197.43275  -0.77130452   -19.651545   -1.1972739  -0.96432872   -418.57353 
   15600    421.52133    892.42177    904.42563    76.674289    329.90882    1.0056572  -0.93165249   -17.430096   -207.98101  -0.79553162   -19.663101   0.94273463  -0.72400466   -7.4360866   -208.00697  -0.73353305   -9.5149823     197.4182  -0.71291435   -19.617931   -1.1991099  -0.96395664   -418.57428 
   15700    421.52133    908.41238    847.02807     90.94848    330.41334    1.0428337  -0.94721012   -17.486699   -208.00345  -0.78564815   -19.762948   0.92120847  -0.72444882   -7.4753617   -207.98023   -0.7195216    -9.569313    197.42674  -0.66306547   -19.684987   -1.2009458  -0.96358455   -418.57503 
   15800    421.52133    906.42464    893.82549    86.657842    330.22448    1.0244443  -0.98055621   -17.555969   -208.02366   -0.7617812   -19.863898   0.88759581  -0.72540795   -7.5647504   -208.01368  -0.71960602   -9.6717662    197.43359  -0.73883745   -19.713102   -1.2027818  -0.96321247   -418.57577 
   15900    421.52133    962.00273    870.37959    152.66263    329.97994    1.0172788  -0.97984925   -17.586601   -208.04255  -0.75066744   -19.837205   0.88481831  -0.67732643   -7.5546043    -208.0459  -0.72284686   -9.6487215    197.42088   -0.6961895   -19.738372   -1.2046178  -0.96284038   -418.57652 
   16000    421.52133    952.35646    891.10657    153.38759    330.25861   0.96397636  -0.99925567   -17.621776   -208.04041  -0.81651176   -19.880158   0.85223719    -0.787406    -7.580768   -208.02022  -0.78062338   -9.6678565     197.3858  -0.68562762   -19.780605   -1.2064538   -0.9624683   -418.57727 
   16100    421.52133    956.60049    870.52245    132.74154    330.40155    0.9552216  -0.93837199   -17.690635    -208.0446  -0.80571611   -19.905002   0.87036914  -0.76461484   -7.6934917   -208.02648  -0.77885967   -9.6685274    197.44139  -0.70537323    -19.81232   -1.2082898  -0.96209622   -418.57802 
   16200    421.52133    973.29836    935.33168     146.9937    330.05542    1.0191444  -0.91896329   -17.788317   -208.03214  -0.83903863   -19.902751   0.95985191  -0.71713818    -7.808296   -208.02274  -0.84570583   -9.7217443    197.40765  -0.79344012   -19.784774   -1.2101257  -0.96172413   -418.57877 
   16300    421.52133    975.75286    946.37246    179.37219     330.2481   0.93939028  -0.84018653   -17.823624   -208.05624  -0.80724554   -19.879996   0.84158852  -0.57750168   -7.7787031    -208.0754  -0.84169379   -9.6794155    197.36299  -0.83572159    -19.84199   -1.2119617  -0.96135205   -418.57951 
   16400    421.52133    991.49862    936.41044    188.89227     330.4824   0.91200512  -0.85285383   -17.829311    -208.0547  -0.81944017   -19.884055   0.81606438  -0.59081169   -7.7634847   -208.07279  -0.85565576   -9.6753364     197.3516   -0.8709707   -19.885673   -1.2137977  -0.96097996   -418.58026 
   16500    421.52133    1039.1908     920.3016    178.73192    330.59609   0.87122025  -0.93816877   -17.941403   -208.08821  -0.83063404   -19.946078   0.75037325  -0.71789874   -7.9417481   -208.07778  -0.84990915   -9.7889018    197.32941  -0.87747201     -19.8451   -1.2156337  -0.96060788   -418.58101 
   16600    421.52133    982.17465    969.77638    209.39602    329.94479   0.93266814   -1.0004242   -17.939256   -208.11199  -0.89443414   -19.929822   0.82482787  -0.83034365   -7.9564702    -208.1041  -0.90098901   -9.7661479     197.3418  -0.84371501   -19.843176   -1.2174697   -0.9602358   -418.58176 
   16700    421.52133    991.38521    945.09438    183.80743    330.24855   0.98240348   -0.9673446   -18.031508   -208.07408  -0.91462554    -19.89078   0.88158971   -0.7665264   -8.0732957   -208.01575  -0.93504417   -9.7005842    197.31471  -0.87771957   -19.866082   -1.2193057  -0.95986371    -418.5825 
   16800    421.52133    941.07397    913.08769    168.29958    330.51682   0.97125405   -1.0401524   -18.059534   -208.07349  -0.91114744   -19.879881   0.92022694  -0.82211506    -8.098309   -208.06613   -0.9451368   -9.6695332    197.30999  -0.91013563    -19.90928   -1.2211416  -0.95949163   -418.58325 
   16900    421.52133    1027.1095    970.40059    204.72578    329.94517   0.95997464  -0.95092072   -18.142666   -208.05507  -0.92539069    -19.86983   0.94850648  -0.75212261   -8.1915075   -208.09094  -0.97837942   -9.6754107      197.348  -0.92898755   -19.861928   -1.2229776  -0.95911954     -418.584 
   17000    421.52133    1009.9496    985.34172    209.01436    330.12854   0.98852631  -0.96505007   -18.113463   -208.05146  -0.95264137   -19.874337   0.94543016  -0.76291817   -8.1601053   -208.04898  -0.92982249   -9.6892259    197.40234  -0.98711224   -19.892399   -1.2248136  -0.95874746   -418.58475 
   17100    421.52133    1037.8473    951.50685    243.74349    330.64196   0.96201013   -1.0050241   -18.123665   -208.01406  -0.98549269   -19.886091   0.96366916  -0.77156424   -8.1337884   -208.00375  -0.94142048   -9.6691351    197.43843  -0.94595766   -19.826302   -1.2266496  -0.95837538   -418.58549 
   17200    421.52133    1047.3274    1013.5389      280.375    329.68821   0.97747698    -1.050344   -18.077994   -207.99853  -0.98611972   -19.888036   0.93975958  -0.83986266   -8.0506695   -207.99994  -0.97956533   -9.6104304    197.43647  -0.93554121   -19.827055   -1.2284856  -0.95800329   -418.58624 
   17300    421.52133    1013.1813    1001.4002    313.88526    330.43147   0.98672807   -1.0722102   -18.116106   -208.00152  -0.93733341   -19.855778    1.0079677  -0.83525759   -8.0707927    -208.0359   -0.9385986   -9.5886332    197.44905  -0.88737669   -19.846003   -1.2303215  -0.95763121   -418.58699 
   17400    421.52133    1084.0468    1038.3364    335.01735    330.21154    1.0179965   -1.0470247   -18.184302   -207.96561   -0.9360503   -19.795082    1.0059716  -0.80038269    -8.196591   -208.02529  -0.93163252   -9.5436907     197.4631  -0.90979801   -19.851651   -1.2321575  -0.95725912   -418.58774 
   17500    421.52133    1114.1841    1065.9521    373.26937    330.56137    1.0529029   -1.0186205   -18.234439   -207.93465  -0.86549277   -19.802328    1.0331499  -0.83236502   -8.2153751   -207.98433  -0.87273865   -9.6213536    197.50684  -0.88277993   -19.902452   -1.2339935  -0.95688704   -418.58849 
   17600    421.52133    1120.9492    1087.0967    483.71413    330.48595    1.0139913   -1.0300272   -18.264139   -207.96077  -0.85521272   -19.839669    1.0293875  -0.81734427   -8.2454403   -207.99958  -0.90530722   -9.6549429    197.47847  -0.86504361   -19.891146   -1.2358295  -0.95651496   -418.58923 
   17700    421.52133    1128.2455    1121.2301    536.48015    330.48071   0.98608416  -0.99913928   -18.309156   -207.94037  -0.83300004   -19.903213   0.98502954  -0.75565467   -8.2970797    -207.8673  -0.87461846   -9.7029634     197.4631  -0.89672378   -19.871146   -1.2376655  -0.95614287   -418.58998 
   17800    421.52133    1177.8202    1172.0891    580.88461    330.81883   0.92952586   -1.0535996   -18.452979   -207.97207  -0.89151568   -19.946735   0.90256775  -0.83665398   -8.4561545    -207.9083  -0.90335174   -9.7624109    197.43707  -0.86951357   -19.906405   -1.2395014  -0.95577079   -418.59073 
   17900    421.52133    1257.7518    1183.7741    691.56684    330.01251   0.96861757   -1.0873964   -18.541844   -207.95286  -0.89233147   -19.991366   0.87513567  -0.83792896   -8.5727776   -207.89884  -0.86371893    -9.766562     197.4463  -0.86847939   -19.877374   -1.2413374   -0.9553987   -418.59148 
   18000    421.52133    1275.5536    1239.6325    757.11344    330.61111    0.9861646   -1.0633801   -18.617728   -207.92758  -0.90030485   -20.003169   0.87895528  -0.81876273   -8.6222531   -207.91611  -0.85573112   -9.8237419    197.45126  -0.88319839   -19.930091   -1.2431734  -0.95502662   -418.59222 
   18100    421.52133    1286.9945    1238.1069    749.68999    331.31556   0.96115278   -1.0043039    -18.74677   -207.93959  -0.85970883   -20.038823   0.85058875   -0.8156127   -8.7840086   -207.91892  -0.82822623   -9.8727605    197.46889   -0.8977964    -19.92027   -1.2450094  -0.95465454   -418.59297 
   18200    421.52133    1339.8754    1276.7716    769.13775    330.52458   0.92755396   -1.0247274   -18.805415   -207.95682   -0.8059105   -20.015134   0.81532931   -0.8226682   -8.8395857   -207.94621  -0.78105181   -9.8870803     197.4322  -0.91639873   -19.877486   -1.2468454  -0.95428245   -418.59372 
   18300    421.52133    1288.1276    1291.4486    799.72335    330.93139   0.87761022   -1.0255642   -18.853865   -207.94181  -0.86034955   -19.980619   0.81723095  -0.85400312   -8.9093444   -207.91899  -0.81936368   -9.8674609    197.37496  -0.91943099    -19.86711   -1.2486814  -0.95391037   -418.59447 
   18400    421.52133    1295.9833    1283.8121    772.13295    331.09478   0.90289624  -0.97799355   -18.836982   -207.97021  -0.85703736   -19.882466   0.80222223  -0.83826415   -8.8578502   -207.95952  -0.84960391   -9.7643944    197.33115  -0.86780939    -19.90641   -1.2505173  -0.95353828   -418.59521 
   18500    421.52133    1324.9254    1274.2069    797.42234    330.87674   0.90725929  -0.90855179   -18.852663   -207.98642  -0.89199428   -19.850225   0.81085112  -0.73723674   -8.8979757   -208.00675  -0.90580578   -9.6840736    197.39196  -0.89619941   -19.920898   -1.2523533   -0.9531662   -418.59596 
   18600    421.52133      1315.13    1266.2019      732.429     330.8403   0.92553385  -0.94744773   -18.853521   -207.98962    -0.885714   -19.816794   0.78307177  -0.78244738   -8.8942004   -207.97959  -0.89983235   -9.6316946    197.40001  -0.97827592   -19.806398   -1.2541893  -0.95279412   -418.59671 
   18700    421.52133    1245.3349     1241.279    712.65942    331.29398   0.93879385  -0.99971607   -18.755719    -207.9133  -0.93351125   -19.742517   0.85188763  -0.77536121   -8.8061372   -207.92015   -0.9135897   -9.5473248    197.42879   -1.0478579   -19.726601   -1.2560253  -0.95242203   -418.59746 
   18800    421.52133    1167.5923     1190.012    641.31721     331.7187   0.96829666   -1.0190043   -18.690922   -207.92001   -1.0261859   -19.681135   0.94264171  -0.86742767   -8.7487664   -207.90671   -1.0175649   -9.4721024    197.45433   -1.0095501   -19.680464   -1.2578613  -0.95204995    -418.5982 
   18900    421.52133    1221.5864    1199.5358    602.22033    330.32421   0.94203378  -0.97613702   -18.637603   -207.94536   -1.0651866   -19.547332   0.95353485  -0.83643627   -8.6331692   -207.93446   -1.0524517   -9.3542816    197.45533   -1.0238704   -19.610385   -1.2596972  -0.95167786   -418.59895 
   19000    421.52133    1167.7161    1128.6313    500.24597    330.49247   0.95287026  -0.98764169    -18.65491   -207.94726   -1.0887914   -19.505325   0.95401988  -0.77937061   -8.6461914   -207.94793    -1.084912   -9.3567345    197.47581   -1.1177176   -19.525929   -1.2615332  -0.95130578    -418.5997 
   19100    421.52133    1101.0479    1082.7034    464.42723    330.84207    1.0291205  -0.98662419   -18.546832   -207.93044    -1.103861    -19.45385    1.0341987  -0.77423092   -8.5091782   -207.92132   -1.1234425    -9.247866    197.45471   -1.0849494    -19.38372   -1.2633692   -0.9509337   -418.60045 
   19200    421.52133     1099.403    1027.2781    410.48011    330.89857   0.99975925  -0.99056548     -18.5142   -207.88905   -1.0970333   -19.382094   0.94637959  -0.79259668   -8.4998396   -207.89893   -1.0750948   -9.2052088    197.46072   -1.0699121   -19.285114   -1.2652052  -0.95056161    -418.6012 
   19300    421.52133    1057.4681     1002.787    343.34592    330.64507    1.0046448  -0.98621285   -18.545759   -207.89504   -1.0790402   -19.271666    0.9125353  -0.80260575   -8.5467947   -207.86694   -1.0805647   -9.1303272     197.4521   -1.0848738   -19.284035   -1.2670412  -0.95018953   -418.60194 
   19400    421.52133    1040.3844     1011.076    319.40298    330.82649   0.99390941  -0.98407809   -18.516186   -207.92408   -1.0355127   -19.192227   0.91330452  -0.74140811   -8.5458811   -207.89407   -1.0075604   -8.9952274    197.37306   -1.0822643   -19.251006   -1.2688772  -0.94981744   -418.60269 
   19500    421.52133    1026.1164    971.75855    287.25678    330.65704    1.0405509   -1.0138436   -18.547645   -207.98837   -1.0306107   -19.114895    1.0238016  -0.73180999   -8.5250899   -207.93506   -1.0744369   -8.9034318     197.4013   -1.0802269   -19.182911   -1.2707131  -0.94944536   -418.60344 
   19600    421.52133    998.04437    987.65872    263.51539     329.8855    1.1009013   -1.0868069   -18.559595   -208.00555   -1.0800562   -19.097754    1.0805407   -0.8861104   -8.5721937   -207.97635   -1.1446403   -8.8736815    197.44103   -1.1319705   -19.192693   -1.2725491  -0.94907328   -418.60419 
   19700    421.52133    1006.6529    965.92144    296.52136    330.04964     1.117577   -1.0543005   -18.537776   -208.02129   -1.1021726   -19.074817    1.0938749  -0.82068362   -8.5347763   -208.03565   -1.1423339   -8.8169193     197.4013   -1.0828856   -19.117208   -1.2743851  -0.94870119   -418.60493 
   19800    421.52133    983.55722    956.77651    260.85181    330.67901     1.062462   -1.0450778   -18.520537   -208.02726   -1.1667624    -19.07713    1.0418925  -0.83023709   -8.5204815   -208.06356   -1.2050286   -8.8651824    197.34712   -1.1439109   -19.130597   -1.2762211  -0.94832911   -418.60568 
   19900    421.52133    1018.5471    995.60992    278.03741    330.22612    1.0137826   -1.1222158   -18.472347    -208.0835   -1.1440918   -19.105288    0.9912152  -0.86950084   -8.4898318   -208.10417   -1.1476624   -8.9185157    197.33766   -1.1474396   -19.120709   -1.2780571  -0.94795702   -418.60643 
   20000    421.52133    1005.4705     974.2172    226.00492    330.12937   0.96238154   -1.0931866   -18.466466   -208.06066   -1.1375699   -19.136381   0.88089766  -0.88111345    -8.433904   -208.05078   -1.1190945   -8.9265129    197.30631   -1.0982105     -19.1781    -1.279893  -0.94758494   -418.60718 
   20100    421.52133    1013.6115    988.25238     211.9662    329.91612   0.96104311   -1.0428568    -18.48719   -208.08417   -1.1835989   -19.160708   0.87503294  -0.85410026   -8.4894978   -208.07661   -1.2208245   -8.9944934    197.25773   -1.1480244   -19.153403    -1.281729  -0.94721286   -418.60792 
   20200    421.52133    979.31786    955.01513    212.23331    330.64477   0.94072911   -1.0166873   -18.416614   -208.13944   -1.0746503   -19.187966   0.86637439  -0.83843899   -8.3948206   -208.14376   -1.1689997   -9.0630527    197.25757   -1.1015614   -19.193279    -1.283565  -0.94684077   -418.60867 
   20300    421.52133    1016.5006    964.87114     239.4015    329.97552   0.94981005   -1.0762496   -18.416146   -208.15673   -1.0895329   -19.269723   0.86789746  -0.88472059   -8.4278807    -208.1392   -1.1422094   -9.1221586    197.22962   -1.1256442   -19.223061    -1.285401  -0.94646869   -418.60942 
   20400    421.52133    968.44387    913.72713    174.65149     329.8584   0.87391474   -1.1023564   -18.445166   -208.16381   -1.1139441   -19.275531   0.78445193  -0.90588226   -8.4889172   -208.18407   -1.1412763   -9.0789647    197.22898   -1.1055711   -19.213267    -1.287237  -0.94609661   -418.61017 
   20500    421.52133    973.38137    914.58766    151.94756    330.14973   0.85510168    -1.089875   -18.384254   -208.17038   -1.1087534   -19.318003   0.77726059  -0.85122194   -8.4098719   -208.17151   -1.0552075   -9.1628832    197.25139   -1.1175767   -19.191379   -1.2890729  -0.94572452   -418.61092 
   20600    421.52133    969.94328    910.70912    120.81431    330.39172   0.91786355   -1.0503016   -18.293241      -208.11   -1.1151156    -19.28073   0.79142595  -0.78649323   -8.3273106   -208.12576   -1.0132428   -9.0862049    197.25137   -1.0920134   -19.265859   -1.2909089  -0.94535244   -418.61166 
   20700    421.52133    965.48204    919.05891    95.942138    330.30321   0.93979691   -1.0350455   -18.302116   -208.10277   -1.1840018   -19.269356   0.84048874  -0.73330011   -8.3447626   -208.09338   -1.1551096   -9.1119553    197.26151   -1.1243743   -19.171984   -1.2927449  -0.94498035   -418.61241 
   20800    421.52133      942.156     918.6236    165.69152    329.90623    0.9617654   -1.0304096   -18.221719   -208.09671   -1.1445906   -19.251386   0.91420179  -0.76662723   -8.3102956   -208.09032   -1.1333894    -9.041772    197.24098   -1.1423423   -19.121761   -1.2945809  -0.94460827   -418.61316 
   20900    421.52133    939.56552    880.95597    128.77738    330.57795    0.9161801   -1.0178396   -18.150543   -208.12639   -1.1107445   -19.284478   0.90094411  -0.78739854   -8.1671639    -208.0949   -1.0902216   -9.0658077    197.27875    -1.177923   -19.085285   -1.2964169  -0.94423619   -418.61391 
   21000    421.52133    958.14921    874.32886    74.533293    330.36065    0.8806949    -1.038142   -18.197089    -208.1468   -1.1089097   -19.174179   0.87705361  -0.86818135   -8.1751118    -208.1238    -1.022762   -8.9740496    197.26359   -1.1699829   -19.164983   -1.2982529   -0.9438641   -418.61465 
   21100    421.52133    926.75326    889.27924    76.774593    330.23289   0.90163321  -0.98617552   -18.260442   -208.10116    -1.095012   -19.137977   0.89238654  -0.79309141   -8.2361246   -208.13033   -1.0578444   -8.9258737    197.25235   -1.1198301   -19.111191   -1.3000888  -0.94349202    -418.6154 
   21200    421.52133    918.94813    898.74505    130.49471    330.00745   0.94682239  -0.96337742   -18.196939   -208.07259   -1.1257342   -19.122666    0.8911848  -0.72681952   -8.1609852   -208.10089   -1.1312518   -8.9669224    197.31384   -1.1192797   -19.140006   -1.3019248  -0.94311993   -418.61615 
   21300    421.52133    951.87637    960.05819    127.80205    330.12001   0.95137593  -0.94374741     -18.1634   -208.01682   -1.1184603   -19.102632   0.87277209  -0.70742742   -8.1650639   -208.02619    -1.134758   -8.9204717      197.328   -1.1172186   -19.186363   -1.3037608  -0.94274785    -418.6169 
   21400    421.52133    938.33753    915.98217    122.99011    330.59819    0.9603022  -0.92319987   -18.124107   -207.98186   -1.0456732   -19.098875   0.83990227   -0.6994922    -8.145406   -207.94797   -1.0554468   -8.8724964    197.34781   -1.0640322   -19.184547   -1.3055968  -0.94237577   -418.61764 
   21500    421.52133    929.83472    906.82298    86.636908    330.41597   0.99221037  -0.93702181   -18.203225   -208.00445   -1.0085834    -19.16715   0.89546817  -0.72769595   -8.3095455   -207.97706  -0.99892744   -8.9401326    197.35625   -1.0445734   -19.220876   -1.3074328  -0.94200368   -418.61839 
   21600    421.52133    903.21431    890.61372    59.619154    330.43604   0.93922541    -1.035924   -18.161727   -208.04254   -1.0262549   -19.238212   0.89855272  -0.83051309   -8.1906105    -208.0415     -1.04197   -8.9969803    197.40617   -1.0364041   -19.215851   -1.3092687   -0.9416316   -418.61914 
   21700    421.52133    887.97309    871.81845    52.381427    330.67065   0.90205375    -1.094917   -18.087917    -208.0323  -0.93313585   -19.273785    0.8610828  -0.83844751    -8.109169   -208.01099   -0.9820492   -9.0572728      197.393   -0.9928725   -19.236772   -1.3111047  -0.94125951   -418.61989 
   21800    421.52133    873.32573    860.72756    2.9517355    330.80666   0.85625253   -1.0880097   -18.070988   -208.02687  -0.92649135   -19.327093   0.87651735   -0.8671544   -8.1056168   -208.00541   -0.9529226   -9.1492043    197.36531  -0.96559378   -19.265357   -1.3129407  -0.94088743   -418.62064 
   21900    421.52133    871.22627    885.66618    16.860373     330.1847    0.8542774   -1.1935747   -18.084135   -208.00341  -0.94052092   -19.363952   0.81541748  -0.98359596   -8.1688849   -208.00249  -0.95961624   -9.1723741    197.34911  -0.94207362   -19.284612   -1.3147767  -0.94051535   -418.62138 
   22000    421.52133    903.07326    850.04663   -20.076434    330.21051   0.84915588   -1.1509152   -18.105951   -208.01726  -0.93596724    -19.39669   0.79030107   -0.9361109   -8.1239647    -208.0281  -0.93860773   -9.2332677    197.31176   -0.8966731   -19.343294   -1.3166127  -0.94014326   -418.62213 
   22100    421.52133    909.58955    833.02173    9.9132245    329.89868   0.88796832   -1.1900317   -17.937199   -208.06889  -0.92564066   -19.445889   0.81461079  -0.97550804   -7.9596224   -208.06812  -0.94085326   -9.2774303    197.34824  -0.88557477   -19.435042   -1.3184487  -0.93977118   -418.62288 
   22200    421.52133    851.43541    856.05267    -22.23231    330.38285   0.85271575   -1.2223405   -17.890322   -208.05049  -0.90783796   -19.466556   0.81418422  -0.97364112   -7.9828075   -208.07372  -0.89464888   -9.3004232    197.31423  -0.80418118   -19.461423   -1.3202846  -0.93939909   -418.62363 
   22300    421.52133    860.17231    825.68912    -47.51638    330.41172   0.81946345    -1.251329   -17.836247   -208.07571  -0.92543588   -19.466052   0.76913792  -0.99853544   -7.8544104   -208.12787  -0.92968329   -9.3359124    197.29833    -0.792028   -19.512524   -1.3221206  -0.93902701   -418.62437 
   22400    421.52133    837.50156    794.41611   -75.337214    330.02041   0.81382334   -1.1996405    -17.79056   -208.05245  -0.93875272   -19.468477   0.75203357  -0.97217424   -7.7884272   -208.08888  -0.95252321   -9.2670712    197.31374  -0.82339218   -19.540774   -1.3239566  -0.93865493   -418.62512 
[...]
  999100    421.52133    895.22477     946.9977    83.309607    330.48965   -17.126026    2.5946653    -26.33576   -226.04596    2.6914058    -26.58239   -17.280129    2.8720023   -16.590178   -226.01914    2.7133073   -16.433566    179.26748    2.7058925   -26.600446   -19.255988    2.6954891   -425.92778 
  999200    421.52133    903.89772    866.55707    52.047771    330.65823   -17.147972    2.6338966   -26.320134   -226.01609    2.6394911   -26.638008   -17.286656    2.9396468   -16.565873    -226.0395    2.6331097   -16.491997    179.30455    2.7116369   -26.617184   -19.257824    2.6958612   -425.92852 
  999300    421.52133    871.13514    871.77371    46.061484    330.57172   -17.193917    2.5768836   -26.325777   -226.03588    2.6577601   -26.675844   -17.343022    2.8900378   -16.530947   -226.04312    2.6326233   -16.521908    179.31956     2.708285   -26.627614    -19.25966    2.6962333   -425.92927 
  999400    421.52133    836.47727    821.95161   -96.185343    331.22552   -17.177649    2.5681172   -26.330605   -226.02112    2.7350643   -26.663552   -17.328178    2.8453938   -16.575593   -226.02355    2.7053012   -16.482606    179.30091    2.6740853   -26.636353   -19.261496    2.6966053   -425.93002 
  999500    421.52133    824.22829     864.8742   -83.745101    330.42737   -17.187304    2.5279862    -26.34295   -226.02089    2.6406848   -26.678247   -17.321127    2.7954073   -16.595557   -226.02137    2.6227983   -16.508145    179.32797    2.6836177    -26.65798   -19.263332    2.6969774   -425.93077 
  999600    421.52133    824.51758    837.27164   -78.923349    330.59511   -17.190074    2.5342843   -26.343778   -226.01603    2.6036073   -26.683348   -17.319225    2.7722068   -16.576647   -226.00488    2.6201843   -16.545934    179.28752    2.6547968   -26.650101   -19.265168    2.6973495   -425.93152 
  999700    421.52133    817.06833    797.40931   -69.986649    330.78613   -17.196327    2.6000301   -26.301556   -226.05313    2.6067079   -26.677564   -17.372843    2.8529044   -16.540806   -226.05285    2.6491901   -16.549354    179.27053    2.6098929   -26.625993   -19.267004    2.6977216   -425.93226 
  999800    421.52133    834.15798    823.29225   -92.753932    330.60214   -17.237681    2.5891187    -26.30705   -226.02453    2.6554558   -26.734717   -17.447527    2.8728166   -16.569515   -226.01223    2.6528646   -16.575491    179.22168    2.5543908    -26.63097    -19.26884    2.6980937   -425.93301 
  999900    421.52133    852.75942    795.02723    -82.40247    330.93695   -17.254984    2.5604143   -26.290331   -226.05092    2.6032644   -26.687156   -17.447581    2.7876908    -16.51686   -226.06556    2.5862046   -16.579425    179.21586    2.4728175    -26.63542   -19.270676    2.6984658   -425.93376 
 1000000    421.52133    848.15523     822.0259   -53.454407    330.40943   -17.210784    2.5408897   -26.322114   -226.10615    2.5439655   -26.699616   -17.424014    2.7191102   -16.572574   -226.11872    2.5389796   -16.603865     179.2551    2.5277276    -26.66539   -19.272512    2.6988379   -425.93451 
 1000100    421.52133    811.55875     745.8253   -123.45335    331.41018   -17.190427    2.5360358   -26.269748   -226.07393    2.4981789    -26.70163   -17.348413    2.7177159   -16.473652   -226.08016    2.5071147   -16.551547    179.23235    2.6071967   -26.699909   -19.274348    2.6992099   -425.93525 
 1000200    421.52133    847.14533    803.96081   -129.32254    330.43685   -17.187405    2.5091831   -26.259166   -226.08772    2.4613509   -26.705869   -17.308441    2.7858566    -16.43773   -226.07877    2.4001528   -16.582733    179.24003    2.5586242     -26.6999   -19.276184     2.699582     -425.936 
 1000300    421.52133     810.0213    798.53316   -161.70786     330.9468   -17.218794    2.5904926   -26.204294   -226.10258    2.5065214   -26.681631   -17.326434    2.8431304   -16.368036   -226.13084    2.4548017   -16.512757    179.25241     2.558377   -26.677405    -19.27802    2.6999541   -425.93675 
 1000400    421.52133    796.99187    760.93538   -204.90245    331.19159   -17.192894    2.6187524   -26.216952   -226.06237    2.5204339   -26.673363   -17.309946    2.8862894   -16.450471   -226.09438    2.5050092   -16.493685    179.23973    2.5692029    -26.69048   -19.279856    2.7003262    -425.9375 
 1000500    421.52133    798.65273    759.37601   -212.49149    330.75337   -17.179979    2.6742038     -26.2325   -226.05454     2.566839   -26.631818   -17.303268    2.9397907   -16.476056    -226.0717    2.5749808   -16.457538    179.30178    2.5541331   -26.691226   -19.281692    2.7006983   -425.93824 
 1000600    421.52133    804.09729    750.60946   -189.31498    330.28805   -17.188386    2.6266484   -26.296364   -226.02709    2.5395896   -26.633445   -17.328848    2.8984104   -16.564754   -226.02579    2.5376346   -16.460874    179.31423     2.533768   -26.676461   -19.283528    2.7010704   -425.93899 
 1000700    421.52133    772.11694    786.17057    -219.4369    330.31304   -17.206937    2.6680827   -26.314601   -225.99451    2.5632694   -26.646963   -17.352836    2.9395956   -16.598538   -225.97512    2.5600011   -16.493598    179.29337    2.5123597   -26.700193   -19.285364    2.7014424   -425.93974 
 1000800    421.52133    777.91402    800.99463   -216.96151    330.32441   -17.120053    2.6581592   -26.322796   -225.97054    2.5615114   -26.690595   -17.278002    2.8975145   -16.547988    -225.9651    2.6198472   -16.530988    179.27801    2.5000907   -26.668971     -19.2872    2.7018145   -425.94049 
 1000900    421.52133    781.97131    776.29554   -170.98454     330.0968   -17.154453    2.6778967   -26.339917   -225.98399    2.5164141    -26.69815    -17.25406      2.90822    -16.57205    -225.9895    2.5475941   -16.586679    179.29753    2.4751237   -26.693653   -19.289036    2.7021866   -425.94124 
 1001000    421.52133    766.40767    777.25719   -181.85683    330.37798   -17.151172    2.6876129   -26.348298   -226.02422    2.4412227   -26.681786   -17.265141    2.9509494    -16.54129   -226.03329     2.447364   -16.555746    179.29528    2.4789222   -26.687175   -19.290872    2.7025587   -425.94198 
 1001100    421.52133    742.56232     773.7858   -210.80527    330.05928   -17.146373    2.7007623   -26.356575   -226.02395    2.4215957   -26.679616   -17.311327    2.9571798   -16.554408   -226.04596    2.4191656   -16.517117    179.31497    2.5186227   -26.681352   -19.292708    2.7029308   -425.94273 
 1001200    421.52133    768.74026    756.93317   -265.95843    330.19446   -17.155541    2.6825366   -26.413998   -225.97199     2.420112   -26.657629   -17.362067    2.9207344   -16.612543     -225.984    2.4382385   -16.534186    179.28057    2.4962091   -26.681606   -19.294544    2.7033029   -425.94348 
 1001300    421.52133    713.37099    680.16456   -308.59998    330.87518    -17.17304    2.7089989   -26.347541   -226.00482    2.4120048   -26.641055   -17.361417    2.9323099   -16.610098   -226.01033    2.3878427   -16.481101    179.31571    2.4465108   -26.667818    -19.29638    2.7036749   -425.94423 
 1001400    421.52133    714.57496    706.92632   -316.81214    330.20517   -17.169886    2.6979346   -26.333688    -226.0376     2.453979   -26.679386   -17.297402    2.9417257   -16.586554   -226.00783    2.3988395   -16.541154    179.29965    2.4213771    -26.66413   -19.298216     2.704047   -425.94497 
 1001500    421.52133    693.41237    722.43768   -319.32706     330.1534   -17.184502    2.6786618   -26.353879   -226.07105    2.4377962   -26.697539   -17.305623    2.9543401   -16.606712   -226.01813    2.3848177   -16.543585    179.28126    2.4024678   -26.589221   -19.300052    2.7044191   -425.94572 
 1001600    421.52133    694.78019    726.29217   -366.57756    330.03677   -17.206991    2.6675364   -26.418062   -226.08823    2.4475288   -26.709135   -17.291724    2.9454069   -16.662302   -226.09289    2.4299988   -16.543205    179.28314    2.4217435   -26.559363   -19.301888    2.7047912   -425.94647 
 1001700    421.52133    701.22592    676.91472   -361.98462    330.49997   -17.220916    2.6332904   -26.398509   -226.05025    2.4654639    -26.67148   -17.322911    2.9119936   -16.612409   -226.04354    2.4414788   -16.490268     179.2601    2.4021481   -26.632831   -19.303724    2.7051633   -425.94722 
 1001800    421.52133    721.85229    690.33618   -337.81564    329.81176   -17.177987    2.5733302   -26.311588   -226.09794    2.4636929   -26.622679   -17.306934     2.805999    -16.52761   -226.13643    2.4389203   -16.446136    179.28502    2.4577718   -26.670746    -19.30556    2.7055354   -425.94796 
 1001900    421.52133    676.19778    648.02626   -386.44467    330.72232   -17.177853    2.5828131   -26.249645    -226.0613    2.5015705   -26.595943   -17.372444    2.7880766   -16.492117   -226.05887    2.4713103   -16.449823    179.27099    2.4284045   -26.691714   -19.307396    2.7059074   -425.94871 
 1002000    421.52133    684.88762    675.87212   -374.52746    330.58281   -17.175231    2.5398613   -26.241654   -226.04134    2.5064872    -26.63855   -17.365346    2.7871783   -16.523446   -226.02797    2.5131414   -16.520985    179.30224    2.4118289   -26.629816   -19.309232    2.7062795   -425.94946 
 1002100    421.52133    684.58952    652.33609   -398.27942    330.38118   -17.153153    2.5465557   -26.239057   -225.99613    2.4909456   -26.668658   -17.312085    2.8078182   -16.524068   -225.97725    2.5095158   -16.550658    179.31166    2.4280429   -26.658875   -19.311068    2.7066516   -425.95021 
 1002200    421.52133    644.49617    641.33755   -399.02874    330.40111   -17.165049    2.5301637   -26.209005   -225.96793    2.4997234   -26.690423   -17.325266    2.7883778   -16.470033   -225.98498    2.5378651   -16.596208    179.32437    2.4322069   -26.696179   -19.312904    2.7070237   -425.95096 
 1002300    421.52133    673.67362     644.2542   -385.22793    330.55102   -17.184974    2.5436682   -26.246902   -225.97848    2.5179687   -26.627869   -17.385979    2.8286668   -16.481482   -225.99298    2.5586833   -16.479767    179.32833    2.4116063   -26.732688    -19.31474    2.7073958    -425.9517 
 1002400    421.52133    699.19538     655.6777   -374.09376    329.68087   -17.159523    2.5496685   -26.199757   -225.92807    2.5094805   -26.634853   -17.373822    2.8210052   -16.426813   -225.93789    2.5437525   -16.478102      179.334    2.4498684   -26.747473   -19.316576    2.7077679   -425.95245 
 1002500    421.52133    687.68123    659.40519   -415.00325    329.81804   -17.140363    2.5685634   -26.251206   -225.93919    2.5313892   -26.667482   -17.303042    2.7976843   -16.452956   -225.94119    2.5235835   -16.504678    179.35978     2.476945    -26.67038   -19.318412      2.70814    -425.9532 
 1002600    421.52133    657.86341    609.38751   -416.16803    330.39532   -17.129344    2.6007025   -26.222244   -225.98797    2.5023348   -26.658644    -17.27458    2.7951766    -16.45818   -225.98629    2.4500574   -16.525917    179.37477    2.5148203   -26.611692   -19.320248     2.708512   -425.95395 
 1002700    421.52133    660.94272    614.16074   -462.30074    330.18502    -17.13066    2.6002842   -26.228982    -225.9786     2.531732   -26.624633   -17.277271    2.7987731   -16.433537   -225.97776     2.531086    -16.45442    179.38083    2.5541421   -26.596088   -19.322084    2.7088841   -425.95469 
 1002800    421.52133    648.07893    580.69922   -551.24125    330.84592     -17.1109    2.5323389   -26.258318    -226.0163    2.5212763   -26.600735    -17.24237    2.7918139   -16.494134   -225.99367    2.5303948   -16.443093    179.38889    2.6207909   -26.511582    -19.32392    2.7092562   -425.95544 
 1002900    421.52133    626.64417     623.9186   -494.72353    329.84621   -17.121043    2.5246835   -26.308531   -225.99009    2.5926461   -26.549716   -17.265909    2.7735167   -16.557192   -225.97765    2.5720232   -16.448758    179.34333    2.6251511   -26.512669   -19.325756    2.7096283   -425.95619 
 1003000    421.52133    566.94577     586.2994   -511.21134    331.02921   -17.164836    2.5580555   -26.298421    -226.0051    2.5690566   -26.547634   -17.332302    2.7971408   -16.580093   -226.00935     2.510076    -16.37946    179.32482    2.6232236   -26.485685   -19.327592    2.7100004   -425.95694 
 1003100    421.52133    618.48237    579.99278   -489.14376    330.37742   -17.132645    2.5241342   -26.343335   -226.02582    2.6144172   -26.542429   -17.245374    2.7191123   -16.570225   -226.05363    2.5892079   -16.370913    179.31753     2.626237   -26.490918   -19.329428    2.7103725   -425.95768 
 1003200    421.52133    657.82049    621.20642   -462.02788    330.12568   -17.128085    2.4935352   -26.306571   -226.03388    2.5730297   -26.570993   -17.235591    2.7206404   -16.535686   -225.99886    2.5942179   -16.429809    179.28188    2.6244747   -26.527436   -19.331264    2.7107445   -425.95843 
 1003300    421.52133    634.05392     636.0285   -449.37408    330.25057   -17.127521    2.5402252     -26.2863   -226.06295    2.5937743    -26.52827   -17.265905    2.7724126   -16.535261   -226.02963    2.6308453    -16.38379    179.30611    2.6037235   -26.553331     -19.3331    2.7111166   -425.95918 
 1003400    421.52133    633.47266    622.30531   -505.16562    330.68226   -17.145773    2.5558443   -26.301123   -226.03794    2.6046829   -26.558462   -17.296577    2.8196523   -16.541387   -225.99673    2.5920281   -16.395092    179.27363    2.7072143   -26.556587   -19.334935    2.7114887   -425.95993 
 1003500    421.52133    651.57151    635.37627   -464.54023    330.04637   -17.151543    2.5652616   -26.277699   -226.01705     2.639637   -26.527001   -17.322502    2.8285733    -16.50528   -225.99798    2.6196637   -16.350578    179.26197    2.7276916   -26.603112   -19.336771    2.7118608   -425.96068 
 1003600    421.52133    632.44699      640.131   -472.21501    330.21236   -17.160985    2.5893449   -26.257347    -226.0344    2.6778956   -26.530494   -17.320097    2.8790345   -16.484205   -226.00172    2.6305593   -16.362667    179.30514    2.6803078   -26.606581   -19.338607    2.7122329   -425.96142 
 1003700    421.52133    661.27656     639.0115   -468.13321     330.1536   -17.142977     2.668087    -26.22445    -226.0436    2.7352319   -26.554893   -17.284972     2.942092   -16.458686   -226.02735     2.671218   -16.398737    179.28059    2.7291851   -26.592852   -19.340443     2.712605   -425.96217 
 1003800    421.52133    665.93827    647.30035   -396.44753    330.27736   -17.076696    2.6949356   -26.209249   -226.07754    2.7584949   -26.564577   -17.199175     2.973423   -16.479234   -226.07466    2.7391554   -16.417122    179.26413    2.7366754   -26.586599   -19.342279     2.712977   -425.96292 
 1003900    421.52133    684.14033    645.54895   -428.53822     330.2854   -17.079711    2.6431168    -26.18466   -226.09458    2.7652468    -26.55602   -17.201734    2.8944406   -16.406393   -226.11074    2.7617794   -16.478641    179.21998    2.7239605   -26.633776   -19.344115    2.7133491   -425.96367 
 1004000    421.52133     668.5719    676.90105   -378.38223    330.24649   -17.094661    2.6213854   -26.182319   -226.08849    2.7829081   -26.521478    -17.22829    2.8370175   -16.379414   -226.10775    2.7899755   -16.353956    179.23884    2.7476057   -26.624291   -19.345951    2.7137212   -425.96441 
 1004100    421.52133    673.77018    657.38123   -385.19659    330.13213   -17.105694    2.6147366   -26.121572   -226.06365    2.7679559   -26.575008   -17.281158    2.8580252   -16.286996   -226.08926    2.7589968   -16.418847    179.23668     2.699758   -26.639039   -19.347787    2.7140933   -425.96516 
 1004200    421.52133    704.55991    668.94749   -377.41287    330.35425   -17.095168    2.6426299   -26.205112   -226.02737    2.8156563   -26.661402   -17.293801    2.8768035   -16.410869   -226.04628    2.8320777    -16.46798    179.25496    2.6945354   -26.603184   -19.349623    2.7144654   -425.96591 
 1004300    421.52133    724.75019    699.23488   -323.93094    330.31588   -17.138165    2.6357318    -26.22916   -226.03981    2.7974906   -26.677293   -17.287337     2.919196   -16.425467   -226.06031    2.8811654   -16.526807    179.30383    2.7057107   -26.593239   -19.351459    2.7148375   -425.96666 
 1004400    421.52133    740.48007    737.83982   -275.99659    330.12085   -17.136102    2.6318486    -26.25821   -226.00548    2.7983413   -26.698406   -17.267182    2.8441879   -16.502428   -225.97775    2.8705782   -16.568526    179.30197    2.7475358   -26.603936   -19.353295    2.7152095    -425.9674 
 1004500    421.52133    777.42324    733.70218   -275.04594    330.50388   -17.151352    2.6268723    -26.27366   -226.00183    2.7892061   -26.674094   -17.270077    2.8260503   -16.511447   -225.96847    2.8367792   -16.575664    179.32099    2.7628487   -26.619513   -19.355131    2.7155816   -425.96815 
 1004600    421.52133     751.4028    735.45689   -260.15741    330.48789   -17.143568    2.6618056   -26.321257   -226.01285    2.7704558   -26.734655   -17.266181    2.9426744   -16.570911   -225.97299     2.794015   -16.600541    179.33462    2.7759006   -26.663422   -19.356967    2.7159537    -425.9689 
 1004700    421.52133    765.33002    752.63309   -224.12229    330.52772   -17.156122    2.6541967   -26.344792    -226.0258     2.767017   -26.779506   -17.287144     2.973986    -16.55081   -226.02961    2.7596645   -16.613445    179.34383    2.8001013   -26.669603   -19.358803    2.7163258   -425.96965 
 1004800    421.52133    799.90099     729.5808   -232.43007    330.42751   -17.183255    2.6760693   -26.289399   -226.00441    2.7100857   -26.779255   -17.360071     2.984107   -16.499056   -226.02526     2.729653   -16.579294    179.31542    2.7522237   -26.752713   -19.360639    2.7166979    -425.9704 
 1004900    421.52133    787.75528    773.09506   -186.84174    330.40553    -17.13054    2.6327442   -26.266498   -225.96116    2.6846227   -26.729447   -17.278277    2.9178709    -16.48168   -225.96992    2.6808932   -16.564578    179.34738    2.7448821   -26.761675   -19.362475      2.71707   -425.97114 
 1005000    421.52133    811.77293    777.83131   -162.36629    330.42919   -17.186722    2.6441164   -26.302828   -225.98089    2.6472977   -26.748947   -17.318691    2.9486063   -16.560824    -225.9997    2.6184967   -16.598619    179.35024    2.7120543   -26.770161   -19.364311     2.717442   -425.97189 
Loop time of 5874.89 on 512 procs for 1000000 steps with 346230 atoms

Performance: 29.413 ns/day, 0.816 hours/ns, 170.216 timesteps/s
99.9% CPU use with 512 MPI tasks x no OpenMP threads

MPI task timing breakdown:
Section |  min time  |  avg time  |  max time  |%varavg| %total
---------------------------------------------------------------
Pair    | 1203.1     | 3752.6     | 4035.7     | 899.5 | 63.88
Neigh   | 0.13703    | 49.415     | 54.94      | 172.5 |  0.84
Comm    | 414.47     | 759.37     | 2372.7     |1084.9 | 12.93
Output  | 4.6162     | 4.9848     | 6.5206     |   3.2 |  0.08
Modify  | 31.244     | 46.505     | 79.689     |  94.2 |  0.79
Other   |            | 1262       |            |       | 21.48

Nlocal:    676.23 ave 751 max 0 min
Histogram: 32 0 0 0 0 0 0 0 14 466
Nghost:    3025.1 ave 3537 max 523 min
Histogram: 16 16 0 0 0 0 20 12 274 174
Neighs:    47601.5 ave 53026 max 0 min
Histogram: 32 0 0 0 0 0 0 0 17 463

Total # of neighbors = 24371956
Ave neighs/atom = 70.3924
Neighbor list builds = 18641
Dangerous builds = 0



Total wall time: 1:40:31
ighbors = 24371074
Ave neighs/atom = 70.389
Neighbor list builds = 18703
Dangerous builds = 0



Total wall time: 1:40:41
