LAMMPS (16 Feb 2016)
# ------------------------ INITIALIZATION ----------------------------
echo both
#log		log.c
units           metal
dimension       3
boundary        p p p
atom_style      atomic
shell         mkdir  cfg
WARNING: Shell command 'mkdir' failed with error 'File exists' (../input.cpp:1126)
shell         mkdir  dump
WARNING: Shell command 'mkdir' failed with error 'File exists' (../input.cpp:1126)


# ----------------------- ATOM DEFINITION & Force Field -------------
# ----------------------- ATOM DEFINITION ----------------------------
lattice         fcc 4.024845358 #origin 0.0 0.0 0.0 orient x 1 -1 0 orient y 1 1 -2 orient z 1 1 1
Lattice spacing in x,y,z = 4.02485 4.02485 4.02485
variable        Lx equal 52
variable        Ly equal 2
variable        Lz equal 208
variable        boxLZ equal 218
region          SYSTEM block -${Lx} ${Lx} -${Ly} ${Ly} -${Lz} 0 units lattice
region          SYSTEM block -52 ${Lx} -${Ly} ${Ly} -${Lz} 0 units lattice
region          SYSTEM block -52 52 -${Ly} ${Ly} -${Lz} 0 units lattice
region          SYSTEM block -52 52 -2 ${Ly} -${Lz} 0 units lattice
region          SYSTEM block -52 52 -2 2 -${Lz} 0 units lattice
region          SYSTEM block -52 52 -2 2 -208 0 units lattice
region          BOX block -${Lx} ${Lx} -${Ly} ${Ly} -${boxLZ} 5 units lattice
region          BOX block -52 ${Lx} -${Ly} ${Ly} -${boxLZ} 5 units lattice
region          BOX block -52 52 -${Ly} ${Ly} -${boxLZ} 5 units lattice
region          BOX block -52 52 -2 ${Ly} -${boxLZ} 5 units lattice
region          BOX block -52 52 -2 2 -${boxLZ} 5 units lattice
region          BOX block -52 52 -2 2 -218 5 units lattice
create_box      1 BOX
Created orthogonal box = (-209.292 -8.04969 -877.416) to (209.292 8.04969 20.1242)
  16 by 1 by 32 MPI processor grid
create_atoms    1 region SYSTEM
Created 346944 atoms

delete_atoms     porosity BOX 0.005 5107    ##random seed <RAND1>
Deleted 1759 atoms, new total = 345185

#---------------------------------------------------------------------------------
pair_style      eam/alloy
pair_coeff  	  * * Al_wkg_MSMSE_2009.set Al

#----------------------------------------------------------------------------------
velocity       all create 300.0 28194 mom yes rot yes dist gaussian         ##random seed <RAND2>

fix             1 all npt temp 300 300 0.1 iso 0.0 0.0 2
run      10000
Neighbor list info ...
  1 neighbor list requests
  update every 1 steps, delay 10 steps, check yes
  max neighbors/atom: 2000, page size: 100000
  master list distance cutoff = 8.365
  ghost atom cutoff = 8.365
  binsize = 4.1825 -> bins = 101 4 215
Memory usage per processor = 0.053688 Mbytes
Step Temp E_pair E_mol TotEng Press Volume 
       0          300   -911213.78            0   -897828.22    736.10154    6048473.6 
   10000    299.79407   -897384.81            0   -884008.44   -2.4177096    6164248.6 
Loop time of 67.0951 on 512 procs for 10000 steps with 345185 atoms

Performance: 12.877 ns/day, 1.864 hours/ns, 149.042 timesteps/s
99.9% CPU use with 512 MPI tasks x no OpenMP threads

MPI task timing breakdown:
Section |  min time  |  avg time  |  max time  |%varavg| %total
---------------------------------------------------------------
Pair    | 0.0050454  | 37.832     | 42.328     | 122.1 | 56.39
Neigh   | 0.00024772 | 0.25475    | 0.28801    |  12.2 |  0.38
Comm    | 0.079003   | 7.9867     | 24.421     | 115.7 | 11.90
Output  | 0.00079608 | 0.00081507 | 0.00082684 |   0.0 |  0.00
Modify  | 15.32      | 20.503     | 66.37      | 184.6 | 30.56
Other   |            | 0.5174     |            |       |  0.77

Nlocal:    674.189 ave 747 max 0 min
Histogram: 16 0 0 16 0 0 16 0 0 464
Nghost:    3183.04 ave 3564 max 0 min
Histogram: 16 0 0 16 0 16 0 0 0 464
Neighs:    47320.3 ave 53266 max 0 min
Histogram: 16 0 16 0 0 5 11 0 2 462

Total # of neighbors = 24228008
Ave neighs/atom = 70.1885
Neighbor list builds = 92
Dangerous builds = 0
unfix 1

fix            2 all nvt temp 300.0 300.0 0.1

run      10000
Memory usage per processor = 0.0541344 Mbytes
Step Temp E_pair E_mol TotEng Press 
   10000    299.79407   -897384.81            0   -884008.44   -2.4177096 
   20000    299.96282   -897405.81            0    -884021.9    80.027938 
Loop time of 65.4221 on 512 procs for 10000 steps with 345185 atoms

Performance: 13.207 ns/day, 1.817 hours/ns, 152.854 timesteps/s
99.9% CPU use with 512 MPI tasks x no OpenMP threads

MPI task timing breakdown:
Section |  min time  |  avg time  |  max time  |%varavg| %total
---------------------------------------------------------------
Pair    | 0.003917   | 37.603     | 42.126     | 120.9 | 57.48
Neigh   | 0.00020719 | 0.22779    | 0.36567    |  11.6 |  0.35
Comm    | 0.068957   | 8.0786     | 24.2       | 112.8 | 12.35
Output  | 0.00020599 | 0.00021628 | 0.00022697 |   0.0 |  0.00
Modify  | 11.547     | 16.646     | 62.493     | 204.9 | 25.44
Other   |            | 2.867      |            |       |  4.38

Nlocal:    674.189 ave 746 max 0 min
Histogram: 16 0 0 16 0 0 16 0 1 463
Nghost:    3185.28 ave 3587 max 0 min
Histogram: 16 0 0 16 0 16 0 0 0 464
Neighs:    47321.4 ave 53115 max 0 min
Histogram: 16 0 16 0 0 2 14 0 4 460

Total # of neighbors = 24228557
Ave neighs/atom = 70.1901
Neighbor list builds = 82
Dangerous builds = 0
reset_timestep 0
unfix    2
#---------------------- DEFINE Laser GERION and GROUP ----------------
region       R1  block -75  75  INF  INF  INF  5  units box
group        G1 region R1
123501 atoms in group G1
group        G2 subtract all G1
221684 atoms in group G2


#define     temperature/pressure calculation  group
variable    x1atom atom "x>=0  &&  x<4 &&  z>-40 && z<1"     ##NEW!!!!!!!!!!!!
variable    x2atom atom "x>=-209.292  &&  x<-205.292 &&  z>-40 && z<1"
variable    x3atom atom "x>=0  &&  x<4 &&  z>-20 && z<1"
variable    x4atom atom "x>=-209.292  &&  x<-205.292 &&  z>-20 && z<1"
variable    x5atom atom "x>=196  &&  x<200 &&  z>-40 && z<1"

group       x1atom variable x1atom
132 atoms in group x1atom
group       x2atom variable x2atom
159 atoms in group x2atom
group       x3atom variable x3atom
65 atoms in group x3atom
group       x4atom variable x4atom
80 atoms in group x4atom
group       x5atom variable x5atom
161 atoms in group x5atom


compute      COM1x x1atom com
compute      COM2x x2atom com
compute      COM3x x3atom com
compute      COM4x x4atom com
compute      COM5x x5atom com

compute      COMall all com

#Temperature profile
#variable      Tprofile atom 300*(1+(step/5000)*2.5*exp(z/40))
variable      Tprofile atom 300*(1+(step/5000)*2.5*exp(z/75))

# ------------------------- SETTINGS ---------------------------------
thermo          100
thermo_style    custom step lx pxx pyy pzz temp c_COM1x[1] c_COM1x[2] c_COM1x[3] c_COM2x[1] c_COM2x[2] c_COM2x[3] c_COM3x[1] c_COM3x[2] c_COM3x[3] c_COM4x[1] c_COM4x[2] c_COM4x[3]  c_COM5x[1] c_COM5x[2] c_COM5x[3] c_COMall[1] c_COMall[2] c_COMall[3]

timestep       0.002


compute dispall all displace/atom
# ---------------- Run Laser Material Interaction --------------------
#dump          1 all custom 1000 dump/z1dump.atom id type x y z c_dispall[1]  c_dispall[2]  c_dispall[3] c_dispall[4]
#dump          2 all cfg 100 cfg/*.cfg mass type xs ys zs
#dump_modify   2 element Al

#relax for 2 PS
#fix           1 all nvt temp 300.0 300.0 0.1
#run  1000
#unfix         1

fix           1  all nve
fix           3temp  G1  langevin  v_Tprofile  0  0.1  378411   #TEST ALL
run           5000
Memory usage per processor = 0.0541573 Mbytes
Step Lx Pxx Pyy Pzz Temp COM1x[1] COM1x[2] COM1x[3] COM2x[1] COM2x[2] COM2x[3] COM3x[1] COM3x[2] COM3x[3] COM4x[1] COM4x[2] COM4x[3] COM5x[1] COM5x[2] COM5x[3] COMall[1 COMall[2 COMall[3 
       0    421.23779    192.32218     188.6425   -140.88086    299.96282    2.2021908  -0.92045711   -20.007868   -207.59872   -1.1000368   -20.189227    2.1251508   -0.8674378     -9.31311   -207.58457   -1.1840141   -10.053696    197.49705   -1.1550623   -19.967281     -1.02881   -1.0129047   -418.51953 
     100    421.23779    263.27318    214.86528    -65.83854    300.04057    2.2251329   -0.8760036   -19.985349   -207.58921   -1.0406081   -20.197736    2.1126572  -0.82376874   -9.2735199   -207.62769   -1.1189724   -10.065724    197.48162   -1.1227705   -20.037108   -1.0290993    -1.012114   -418.51977 
     200    421.23779    310.51809    274.04883    46.591047    300.69949    2.2437194  -0.89350731   -19.997346   -207.60762   -1.0414094   -20.159423    2.1288949  -0.78778599   -9.2579785   -207.62464   -1.0788114   -10.055519    197.48645     -1.11984   -20.036944   -1.0295453    -1.010689   -418.51932 
     300    421.23779     353.8398    339.36891    30.982137    300.92985    2.2342681  -0.89047652   -20.019962   -207.63353   -1.0595732   -20.158901    2.1156738   -0.8093152   -9.2901609   -207.61432   -1.0667943    -10.06997    197.47251   -1.0729237   -20.084395    -1.030608   -1.0094995   -418.51866 
     400    421.23779    370.80039    386.17056    91.612756    301.59257    2.2392846  -0.92023097   -19.964687   -207.61274   -1.1121682   -20.148861    2.1303384  -0.84403064   -9.2115876   -207.59877   -1.0436083   -10.038703    197.45602   -1.0424151   -20.064011   -1.0318322    -1.008797   -418.51751 
     500    421.23779    384.73913    341.50541    75.017418    302.48129    2.2560307   -0.9467112   -19.947853   -207.62099   -1.0945954   -20.156184    2.1656443   -0.9256067   -9.2176445   -207.59001   -1.0210161    -10.03505    197.45862   -1.0566525   -20.046037   -1.0326301   -1.0079078   -418.51555 
     600    421.23779    438.93457    381.61175    125.43907    302.71606     2.217212  -0.90904006   -19.971974   -207.62461   -1.0463824    -20.17777    2.0939256  -0.79885496   -9.2808635   -207.58028  -0.98673905    -10.02507    197.44814   -1.0559229   -20.097779   -1.0329481   -1.0068732   -418.51471 
     700    421.23779    477.21272    421.20379    154.30601    303.03487    2.1872995  -0.96130248   -19.974641   -207.62973   -1.0018496   -20.134588    2.1127664  -0.89406481   -9.2893446   -207.58045  -0.97779532     -10.0092     197.4614   -1.0445184   -20.022616   -1.0338895    -1.005525   -418.51412 
     800    421.23779    516.95332    465.26063    192.78651    304.06211    2.1938913  -0.94638442   -19.968472   -207.63005   -1.0106988   -20.144869    2.1216239  -0.88281352   -9.2721831   -207.58832   -1.0376943   -10.041207    197.48261  -0.96924209   -20.009379   -1.0341675   -1.0040227   -418.51373 
     900    421.23779    471.80887    475.12271    148.81972    304.17702    2.2031625  -0.90313138   -19.967972   -207.61749   -1.0122095   -20.216482    2.0723435  -0.81538305   -9.2538481   -207.57373   -1.0002962   -10.142333    197.46716   -0.9610455   -19.955533   -1.0340731   -1.0033833   -418.51305 
    1000    421.23779    522.36772    481.27481      211.189    304.78581    2.2262181  -0.86626363   -19.938077   -207.61881  -0.97240338   -20.169066    2.1025487   -0.7590745    -9.182381   -207.56064  -0.96869936   -10.048124    197.45518  -0.94487388   -20.002507   -1.0340916   -1.0023354   -418.51187 
    1100    421.23779    500.95966    484.02607    188.66213    305.95987    2.2311349  -0.88666285   -19.945831   -207.66108   -1.0029858   -20.126399    2.1452182  -0.81648907   -9.1846394     -207.648  -0.96872412   -10.030986    197.40133  -0.99392081   -20.053277   -1.0335697   -1.0018873   -418.51119 
    1200    421.23779    522.37919    522.43865     209.3358    306.21468    2.2487909  -0.92810541   -19.931474   -207.67732  -0.97749445   -20.125523    2.1705364  -0.88627773   -9.1687476   -207.67525  -0.95848147   -10.002525    197.42817   -1.0069509   -20.101634   -1.0339702   -1.0016697   -418.51018 
    1300    421.23779    566.49448    485.43846     222.1677     306.4653    2.2342261  -0.95336532   -19.949746   -207.65754  -0.98638824    -20.16302    2.1412882  -0.92649278   -9.1902973   -207.67572  -0.97046619   -10.053005     197.4416   -1.0482979   -20.070274    -1.034186   -1.0012383   -418.50811 
    1400    421.23779     611.6491    488.10647    269.73836    307.29312    2.2128308  -0.92495747   -19.969876   -207.66836   -0.9661215    -20.17302    2.0959258  -0.96109112   -9.2234601   -207.70474  -0.92273079   -10.055172    197.41794   -1.0523048    -20.06829   -1.0340872   -1.0007906   -418.50668 
    1500    421.23779    618.69035    563.85461    264.72683    307.41752    2.2374413  -0.98646471   -19.909922   -207.70415   -1.0270025    -20.18155    2.1415526   -1.0677631   -9.1543628   -207.72333  -0.99628926   -10.075098    197.38263   -1.0078992   -20.065051   -1.0336353   -1.0006311    -418.5049 
    1600    421.23779    685.01644    644.47753    351.51078    308.47981    2.2023062  -0.97170814   -19.907583   -207.69546    -1.069786   -20.182267    2.1540521   -1.0043672   -9.1342968   -207.73991   -1.0670502   -10.091586    197.41128  -0.99073146   -20.053916   -1.0332031    -1.000121   -418.50269 
    1700    421.23779    676.88773    670.27566    310.06717    308.87333    2.2701923   -1.0513092     -19.8226   -207.68023   -1.0593064    -20.16357    2.1528954   -1.0144665   -9.0547093   -207.73047   -1.0962592   -10.026473    197.40652   -1.0463931   -20.090448   -1.0342292   -1.0000888   -418.50063 
    1800    421.23779    724.47656    702.04043    346.38923    309.85508    2.2681155   -1.0440092   -19.866163   -207.70142   -1.0330649   -20.151722     2.222133  -0.93740123    -9.081916   -207.74129   -1.0661599   -10.069174    197.39065   -1.0703116   -20.153712   -1.0345176   -1.0003881   -418.49938 
    1900    421.23779    781.18094    718.69388    355.85324    309.96276    2.2514085   -1.0488609   -19.892124   -207.72889  -0.99682857   -20.115296    2.2204581  -0.88016213   -9.1381553   -207.72541   -1.0572366   -10.016021    197.38629   -1.0789216    -20.10546   -1.0343024   -1.0019943   -418.49781 
    2000    421.23779    754.40254    754.17718    356.94516    310.75624     2.256216  -0.98417638   -19.900647   -207.76157   -1.0868133   -20.091283    2.2293331  -0.80230331    -9.073406   -207.73601   -1.1251189   -9.9724838     197.3818   -1.0899129   -20.089935   -1.0347756   -1.0033945   -418.49627 
    2100    421.23779    780.58574    785.51026     391.0494    310.62558    2.1776131  -0.97811854   -19.890382   -207.72524   -1.0442495   -20.115073    2.1601339  -0.86517758   -9.0342922   -207.68626   -1.0820787    -9.963146    197.34188   -1.0423766   -20.018963   -1.0354856   -1.0046957   -418.49506 
    2200    421.23779    780.91234    778.08635     358.7632    311.18787    2.2174698  -0.94903494   -19.882366   -207.73939   -1.0202141   -20.090811    2.1817831  -0.84236963     -9.08069    -207.6979   -1.0467443   -9.9226368     197.3977    -1.027294   -20.019408   -1.0360979   -1.0055335   -418.49302 
    2300    421.23779    841.77597    810.87051    420.79146    312.50573    2.2123403  -0.91780566   -19.900393   -207.71315   -1.0438398   -20.100928    2.1329651  -0.78473177   -9.1008696   -207.70296    -1.047534   -9.9608727    197.39643   -1.0651566   -19.953142   -1.0360721   -1.0059631   -418.49175 
    2400    421.23779    866.90204     826.5613    441.41035    313.33883     2.215628  -0.88614862   -19.866681    -207.7224    -1.016823   -20.119909    2.1396199  -0.75092967   -9.0228249   -207.72035  -0.96631787   -9.9917786    197.41611   -1.0965526   -19.992051   -1.0354677   -1.0056519   -418.49086 
    2500    421.23779    910.50995    860.01997    533.50567    314.16952    2.2020521  -0.90340081   -19.860237   -207.74948    -0.996358   -20.176033    2.1011303  -0.74117039   -9.0875693   -207.75939  -0.90413339   -10.043331     197.4038    -1.068611   -19.998937   -1.0357308   -1.0053758   -418.48933 
    2600    421.23779     941.7781     902.6863    517.88594    314.96195    2.2060009  -0.93509563   -19.944073   -207.75806  -0.98814855   -20.148486     2.078154  -0.79099727   -9.1660334   -207.80704  -0.94530513   -10.019375    197.41472   -1.0824239   -20.008059   -1.0346571   -1.0050724   -418.48858 
    2700    421.23779    968.46947    947.49574      518.587    315.97527    2.1968539   -1.0015151   -19.954239   -207.72694   -1.0072724   -20.142818     2.134141   -0.8655236   -9.2053096   -207.77831  -0.97657139   -10.055167    197.41326   -1.0720545   -20.058835   -1.0332959   -1.0058215   -418.48694 
    2800    421.23779    1014.5479    971.39472    593.22502    315.77605    2.1348887  -0.99713532   -19.831951   -207.74016   -1.0238894   -20.118758     2.112854  -0.96257657    -9.069285   -207.76531   -1.0435719   -9.9829571    197.41871   -1.0384729    -20.03583    -1.032532   -1.0069291   -418.48526 
    2900    421.23779    1022.5737    1011.0412    611.62067    316.23208    2.1923698   -1.0312073   -19.778222   -207.72904   -1.0221871   -20.136197    2.1598674   -1.0020756   -8.9809526   -207.74096   -1.0602181   -10.030734    197.45474   -1.0412365   -19.964855   -1.0318127   -1.0072637     -418.484 
    3000    421.23779    1059.2968    1013.3793     671.6928    316.83947    2.2454276  -0.94930939   -19.816088   -207.67208   -1.0821695   -20.071206    2.1877946  -0.83450608   -8.9811065   -207.64117   -1.0959963   -9.9423554    197.46645  -0.98976769   -19.971403   -1.0318607   -1.0070088   -418.48296 
    3100    421.23779     1043.995    1019.4192    610.45038    318.43009    2.2216625  -0.98583555   -19.737331   -207.63914   -1.0585615   -20.032698    2.1918044  -0.86346561   -8.8474039    -207.6225   -1.0748426   -9.9245922    197.46441    -1.050522   -19.894848   -1.0307476   -1.0090205     -418.482 
    3200    421.23779    1078.8541    1050.9168    632.84356    318.18441      2.17751  -0.98251197   -19.757247   -207.63068   -1.0159293   -19.992066    2.1070435  -0.90342128   -8.9140676   -207.64062   -1.0197024   -9.8928499    197.46895  -0.99834907   -19.850811   -1.0294034   -1.0100015   -418.48085 
    3300    421.23779    1044.5023    1006.5265    560.80059    319.02014    2.1660388  -0.98193773   -19.806074   -207.64686   -1.0286477   -19.959993    2.1395965  -0.93016714   -8.9533947   -207.62074   -1.0556512     -9.84211    197.44121   -1.0517708   -19.826852   -1.0288559   -1.0106875   -418.48078 
    3400    421.23779    1095.8045    1072.9761    585.29145    319.05803    2.1986382  -0.98742241   -19.825306    -207.6953   -1.0352814   -19.924345    2.1505837   -0.9185309   -8.9243287   -207.65789   -1.0122521   -9.7714621    197.46638   -1.0137962   -19.815574   -1.0286834   -1.0115444   -418.48063 
    3500    421.23779    1117.8808    1106.4723    581.18429    319.65789    2.2336429  -0.99101001   -19.857353   -207.69825   -1.0141893   -19.854309    2.1636522  -0.90791221   -8.9648438   -207.65288   -0.9834194   -9.7236352    197.46717   -1.0151527     -19.7524    -1.027538   -1.0117367    -418.4803 
    3600    421.23779    1124.1657    1029.0571    566.91564     321.6605     2.194758  -0.98696796   -19.777535   -207.67647   -1.0308821   -19.886618    2.1319649  -0.91063203   -8.8476103   -207.67398   -1.0066992    -9.753895    197.44566   -1.0751716   -19.733224   -1.0271389   -1.0124026   -418.47945 
    3700    421.23779      1165.01    1130.4208    660.42047    322.91466    2.2048862  -0.93072721   -19.756782   -207.69073  -0.99460288   -19.867659    2.1067591  -0.87937765   -8.8778088    -207.7129   -1.0003061   -9.7206103    197.44425   -1.0958498   -19.733206   -1.0280371   -1.0136003   -418.47893 
    3800    421.23779    1214.8296    1123.2903    696.24246    322.15672    2.2178848  -0.88872732    -19.76584    -207.6859   -1.0366379     -19.8144    2.1492335  -0.79921697   -8.8907622    -207.6817   -1.0439976   -9.6836193    197.43266   -1.0663465   -19.728232    -1.027875   -1.0141639   -418.47813 
    3900    421.23779    1191.4028    1129.6735    655.63776    323.38303    2.1842368  -0.96700591   -19.726897   -207.70426   -1.0326241    -19.78699    2.1054446  -0.85103823   -8.9302142    -207.7037   -1.0156298   -9.6629504     197.4615   -1.0130601   -19.774825   -1.0276028   -1.0153121   -418.47819 
    4000    421.23779    1242.5071    1184.0633    676.88216    323.99872     2.206548  -0.94185811   -19.773826   -207.69218    -1.025214   -19.816893    2.1329022  -0.84841024   -8.9555338   -207.71724   -1.0168311   -9.6980497    197.47309   -0.9849928   -19.732185   -1.0275513   -1.0155937   -418.47861 
    4100    421.23779    1306.2887    1258.7885    688.36965    323.59064    2.1595592  -0.92518653   -19.678637   -207.63662  -0.96124819   -19.786582    2.0964468  -0.86818387   -8.7866207   -207.66468  -0.96169172   -9.6584751    197.48688  -0.95296066   -19.716049    -1.026793   -1.0159244   -418.47959 
    4200    421.23779    1307.1054    1241.4491    669.64638    324.39117    2.1414929  -0.91647886   -19.714521   -207.64405  -0.93969243   -19.777522    2.1196574  -0.83829339   -8.8499963   -207.66006  -0.88560465   -9.6537539    197.49062  -0.97528654   -19.717378   -1.0263629   -1.0160713   -418.48065 
    4300    421.23779    1290.9222    1257.1312    709.06866    325.46097    2.1395997  -0.89996955   -19.675086   -207.63854  -0.96199864   -19.802591     2.144849   -0.8061964   -8.7860546    -207.6647  -0.92011221     -9.67589    197.49664  -0.97383873   -19.735644   -1.0259215   -1.0177598   -418.48197 
    4400    421.23779     1323.684    1304.8661    678.77109    326.28603    2.1871965  -0.95922713   -19.619265   -207.61328  -0.96479157   -19.810326    2.1886104  -0.77276536   -8.7005824   -207.61773  -0.98244434   -9.6334697    197.52059   -1.0020903   -19.721101   -1.0252399   -1.0186877   -418.48291 
    4500    421.23779       1320.9    1309.7405    719.32056    326.82666    2.2312004  -0.92873853   -19.549343     -207.569  -0.98313605   -19.839359    2.2569703  -0.73662712   -8.6186162   -207.52957    -0.981762   -9.6929809    197.55038  -0.98635537   -19.733697   -1.0257499   -1.0194515   -418.48361 
    4600    421.23779    1382.3826    1339.0184    704.63468    327.87515    2.2360708  -0.93537144   -19.503426   -207.62979   -1.0139945   -19.877836     2.200958  -0.83129786   -8.5258608   -207.59146  -0.98785271   -9.7317274    197.60078   -1.0500363   -19.703308   -1.0262266   -1.0200746   -418.48529 
    4700    421.23779    1406.0386    1380.0247     731.1833    328.29779    2.2894334  -0.88638394   -19.593862   -207.59351  -0.97928007   -19.900126    2.2878743  -0.72692828   -8.6208769   -207.58648  -0.94823199   -9.8060897    197.54328   -1.0576062   -19.683084   -1.0270769   -1.0199821   -418.48726 
    4800    421.23779    1443.7442    1347.6541    708.62275    328.91537    2.2457997  -0.83491442   -19.557798   -207.60992   -1.0134357    -19.86277    2.1881794  -0.67352818   -8.5951422   -207.58338  -0.95134178   -9.7421529      197.553   -1.0111665   -19.688787    -1.028651   -1.0209619   -418.48907 
    4900    421.23779    1428.1051    1351.9693    706.18032    329.61294    2.2312429  -0.78644617   -19.532314    -207.6178   -1.0593149   -19.872877    2.1524492    -0.691675   -8.4889411   -207.62468  -0.98847469   -9.7582263    197.53069   -1.0272177   -19.671724   -1.0301195   -1.0214823   -418.48991 
    5000    421.23779    1445.0856    1363.6725    792.37156    329.61452    2.1732048   -0.7718048   -19.490539    -207.6518   -1.0376777   -19.875742    2.0962081  -0.70797949   -8.3371405   -207.65636   -1.0129479   -9.7199809    197.56841   -1.1010818   -19.651594   -1.0322521   -1.0222533   -418.49141 
Loop time of 32.9372 on 512 procs for 5000 steps with 345185 atoms

Performance: 26.232 ns/day, 0.915 hours/ns, 151.804 timesteps/s
99.9% CPU use with 512 MPI tasks x no OpenMP threads

MPI task timing breakdown:
Section |  min time  |  avg time  |  max time  |%varavg| %total
---------------------------------------------------------------
Pair    | 0.0020216  | 19.571     | 21.665     |  86.7 | 59.42
Neigh   | 0.00027752 | 0.36448    | 0.41763    |  14.6 |  1.11
Comm    | 0.1052     | 4.9167     | 12.923     |  74.6 | 14.93
Output  | 0.081949   | 0.14165    | 0.62707    |  23.5 |  0.43
Modify  | 0.029641   | 0.39874    | 1.0023     |  50.3 |  1.21
Other   |            | 7.545      |            |       | 22.91

Nlocal:    674.189 ave 754 max 0 min
Histogram: 16 0 0 16 0 0 16 0 2 462
Nghost:    3160.22 ave 3567 max 0 min
Histogram: 16 0 0 16 0 16 0 0 16 448
Neighs:    47369.6 ave 53593 max 0 min
Histogram: 16 0 16 0 0 7 9 0 10 454

Total # of neighbors = 24253251
Ave neighs/atom = 70.2616
Neighbor list builds = 131
Dangerous builds = 0


variable  com1_x equal "c_COM1x[1]"
variable  com1_y equal "c_COM1x[2]"
variable  com1_z equal "c_COM1x[3]"
variable  com2_x equal "c_COM2x[1]"
variable  com2_y equal "c_COM2x[2]"
variable  com2_z equal "c_COM2x[3]"
variable  com3_x equal "c_COM3x[1]"
variable  com3_y equal "c_COM3x[2]"
variable  com3_z equal "c_COM3x[3]"
variable  com4_x equal "c_COM4x[1]"
variable  com4_y equal "c_COM4x[2]"
variable  com4_z equal "c_COM4x[3]"
variable  com5_x equal "c_COM5x[1]"
variable  com5_y equal "c_COM5x[2]"
variable  com5_z equal "c_COM5x[3]"
variable  comall_x equal "c_COMall[1]"
variable  comall_y equal "c_COMall[2]"
variable  comall_z equal "c_COMall[3]"


fix          2 all print 100 "${com1_x}   ${com1_y}   ${com1_z}  ${com2_x}   ${com2_y}   ${com2_z} ${com3_x}   ${com3_y}   ${com3_z} ${com4_x}   ${com4_y}   ${com4_z} ${com5_x}   ${com5_y}   ${com5_z} ${comall_x}   ${comall_y}   ${comall_z}" file COM.data screen no
#-------------------------- Wave Propagation -------------------------
unfix        3temp
run          1000000
Memory usage per processor = 0.0541573 Mbytes
Step Lx Pxx Pyy Pzz Temp COM1x[1] COM1x[2] COM1x[3] COM2x[1] COM2x[2] COM2x[3] COM3x[1] COM3x[2] COM3x[3] COM4x[1] COM4x[2] COM4x[3] COM5x[1] COM5x[2] COM5x[3] COMall[1 COMall[2 COMall[3 
    5000    421.23779    1445.0856    1363.6725    792.37156    329.61452    2.1732048   -0.7718048   -19.490539    -207.6518   -1.0376777   -19.875742    2.0962081  -0.70797949   -8.3371405   -207.65636   -1.0129479   -9.7199809    197.56841   -1.1010818   -19.651594   -1.0322521   -1.0222533   -418.49141 
    5100    421.23779    1421.0921    1374.9627     754.2907    329.46768    2.1169581  -0.69664539   -19.514451   -207.63801   -1.0594967    -19.82947    2.0624605  -0.62108434     -8.42605   -207.63939   -1.0905344   -9.6930254     197.5482   -1.1089842   -19.657181   -1.0345627   -1.0232423   -418.49429 
    5200    421.23779    1393.7339     1364.514    694.18387    329.12788    2.1412277  -0.63477498   -19.390651   -207.62531   -1.0563225   -19.815888    2.1053624  -0.52933715   -8.3623742   -207.58077    -1.082686   -9.6512739    197.56211   -1.0878623   -19.654371   -1.0368734   -1.0242312   -418.49716 
    5300    421.23779    1390.7405    1271.8918    665.13906    329.27161    2.1899816  -0.77497889   -19.381847   -207.63542   -1.0860481   -19.791462    2.0954905  -0.67019865   -8.3958195   -207.55906   -1.1481863   -9.6131447     197.5673   -1.0178692   -19.698106   -1.0391841   -1.0252202   -418.50004 
    5400    421.23779    1376.4174    1292.1549    580.04533    329.19067    2.1543337  -0.78085641   -19.302861   -207.69733    -1.116796   -19.755782    2.0834955  -0.77648896   -8.2258332   -207.61769   -1.1260203   -9.5466632    197.57171   -1.0348074   -19.728267   -1.0414948   -1.0262092   -418.50292 
    5500    421.23779    1325.5189    1262.3312    586.86013    328.60392    2.2372096  -0.83592454   -19.175679   -207.69164   -1.0664486    -19.71442    2.1526916  -0.72210424   -8.1060712   -207.63471   -1.0280824   -9.5308823    197.52204   -1.0315275   -19.732364   -1.0438055   -1.0271981   -418.50579 
    5600    421.23779    1237.0682    1202.2214    498.41367    329.32818    2.2213736  -0.92025641   -19.049578    -207.6815   -1.0228842   -19.786014    2.1034125  -0.90918286   -8.0000874   -207.70044  -0.99259186   -9.6404057    197.55534   -1.0679555   -19.628108   -1.0461161   -1.0281871   -418.50867 
    5700    421.23779    1239.1312    1186.1352     457.0107    328.67666    2.2264271  -0.83607372   -18.964815   -207.67914   -1.0514613   -19.856072    2.0924858  -0.73179107   -7.8503951   -207.71664   -1.0319473   -9.7119403    197.54939   -1.1497265    -19.63855   -1.0484268    -1.029176   -418.51155 
    5800    421.23779    1248.1054    1148.7558    364.18419    329.38502    2.2277034  -0.76886542   -18.867019   -207.65921   -1.0671498   -19.911517    2.0883633  -0.67951731   -7.7472243   -207.72512   -1.0691452   -9.7410949     197.5251   -1.1929328   -19.622463   -1.0507375    -1.030165   -418.51443 
    5900    421.23779    1201.5999    1149.9132    345.00407    329.31829    2.2563885  -0.74704382   -18.861874   -207.67774    -1.161364    -19.86826    2.1260478  -0.70601923   -7.7768752   -207.69551   -1.1530325   -9.7482226    197.48523   -1.2101321   -19.701124   -1.0530482   -1.0311539    -418.5173 
    6000    421.23779    1168.1439    1110.9451     354.7546     329.3759    2.2286024  -0.71336779   -18.787019   -207.67456   -1.1485008   -19.833161    2.1100371  -0.62499195   -7.6879896   -207.67151   -1.2098285   -9.7044975    197.51439   -1.1946136   -19.784056   -1.0553589   -1.0321429   -418.52018 
    6100    421.23779    1194.0809    1063.3055     280.1002    329.22834    2.2142653  -0.73159132   -18.700338   -207.69448   -1.1795874   -19.863868    2.1017171  -0.69493365   -7.5981911   -207.68815   -1.1990865   -9.7074234     197.5546   -1.2615155   -19.826383   -1.0576695   -1.0331318   -418.52306 
    6200    421.23779    1148.2956    1060.9725    229.86469    329.52281    2.1996223  -0.70175394   -18.622469   -207.71492   -1.1029026   -19.875057    2.0629511  -0.59961664   -7.5246605   -207.70075   -1.1196939   -9.6905453    197.54854   -1.2612387   -19.811343   -1.0599802   -1.0341208   -418.52593 
    6300    421.23779    1179.7404    1067.6551    213.53283    329.29356    2.3020358  -0.64759763   -18.563904   -207.74695   -1.1289453    -19.89032    2.2598998  -0.56144584   -7.5170681   -207.71273   -1.1481475   -9.7262049     197.5225   -1.2149726   -19.784694   -1.0622909   -1.0351097   -418.52881 
    6400    421.23779    1121.9985    1054.2342    214.60232    329.15488    2.3076194    -0.603541    -18.46642   -207.75041   -1.1526206   -19.891747    2.2263873  -0.52104525   -7.4771734   -207.72967   -1.1230257   -9.7330471    197.50916   -1.1267386    -19.69483   -1.0646016   -1.0360987   -418.53169 
    6500    421.23779    1084.7333    1002.2731     135.2321    329.14495    2.3366352  -0.65155519   -18.394272   -207.76916   -1.1361325   -19.853572      2.24789   -0.5859719   -7.4128791    -207.7717   -1.0724979    -9.692273     197.5029   -1.1682001   -19.757204   -1.0669123   -1.0370877   -418.53456 
    6600    421.23779    1073.9748    1030.2672    63.463885    328.80507    2.3259925  -0.71001298   -18.174684   -207.75491   -1.0841074   -19.831401    2.2450174  -0.65353459    -7.093077   -207.78246   -1.0191476   -9.6942943     197.4942   -1.1632104   -19.805007   -1.0692229   -1.0380766   -418.53744 
    6700    421.23779    1069.6664    1009.7956    116.73068    329.45176    2.3738953  -0.74798796   -18.033463   -207.77329   -1.0494275   -19.819393    2.3044021  -0.63829269   -6.9092353   -207.83293   -1.0349605   -9.6474097      197.483   -1.1605905   -19.818872   -1.0715336   -1.0390656   -418.54032 
    6800    421.23779    1060.6416     985.4835    72.941632    329.41999    2.3279893  -0.73138981   -17.965155   -207.78218   -1.0699219   -19.850949    2.2343307  -0.55479951   -6.8920336    -207.8422   -1.0932915   -9.6722832    197.46393   -1.1310505    -19.83465   -1.0738443   -1.0400545    -418.5432 
    6900    421.23779    1085.8181    996.54506    56.885845    329.10395    2.3016771  -0.81001937   -17.863543   -207.76344   -1.0320154   -19.885066    2.2223421  -0.79975634   -6.7952935   -207.82556   -1.0470482   -9.7281462    197.47167   -1.0812671   -19.862665    -1.076155   -1.0410435   -418.54607 
    7000    421.23779     1046.068    995.01809    54.752247     329.0772    2.2332586  -0.75315623   -17.742358   -207.76956   -1.0730186   -19.885995    2.1824572   -0.7526062   -6.7222606    -207.7775   -1.1396423   -9.7601727    197.45352   -1.0682125   -19.859761   -1.0784657   -1.0420324   -418.54895 
    7100    421.23779    1030.0499     943.3696    18.673989    329.17134    2.2220613  -0.81963557     -17.7036   -207.81683   -1.0995629   -19.890814    2.1203209  -0.79334367   -6.6631565   -207.82329   -1.1270794   -9.6931769    197.46386    -1.060578   -19.857795   -1.0807763   -1.0430214   -418.55183 
    7200    421.23779    992.10158    900.56775   -20.341272    329.83501    2.1841185  -0.82364884   -17.529624   -207.78702   -1.0831149   -19.943807    2.0708783  -0.75288809    -6.414128   -207.78256   -1.0812563   -9.7809594     197.3788   -1.0905496   -19.868345    -1.083087   -1.0440103    -418.5547 
    7300    421.23779    975.14679    927.49941   -28.968206    329.56106    2.1941554   -0.8027286   -17.401978   -207.80109   -1.0405142   -19.883888    2.1699231  -0.76421206    -6.345584   -207.82226   -1.0096886   -9.7012174    197.38051   -1.0881301   -19.878194   -1.0853977   -1.0449993   -418.55758 
    7400    421.23779    974.04052    934.99407   -15.584426    329.42367    2.2292585  -0.75150782   -17.437448   -207.79031   -1.0557946   -19.950356     2.207467  -0.71268819    -6.339437   -207.81837   -1.0239557   -9.8311713    197.40519   -1.0981233   -19.864939   -1.0877084   -1.0459882   -418.56046 
    7500    421.23779    984.78347    910.88406   -58.788034    329.41509    2.1887349  -0.81137946   -17.420333   -207.75693   -1.0524993   -19.994068    2.1775894   -0.7192806   -6.2669161   -207.77086   -1.0304738   -9.8976427    197.41518    -1.099872   -19.892235   -1.0900191   -1.0469772   -418.56333 
    7600    421.23779     1012.053    937.50722   -54.333352    329.04167    2.1024105  -0.87678313   -17.426981   -207.80246  -0.96228479   -20.091753     2.051387  -0.81987339    -6.388443   -207.77529  -0.89000041   -9.9289613    197.45002   -1.1350049   -19.899798   -1.0923297   -1.0479661   -418.56621 
    7700    421.23779    970.57196    927.36432   -85.536983    329.78905    2.1319185  -0.85637445   -17.445917    -207.7585  -0.99064812   -20.146041    2.0164582  -0.71985539   -6.3671516   -207.75417   -0.8862806   -9.9684791    197.45027   -1.1222154   -19.938927   -1.0946404   -1.0489551   -418.56909 
    7800    421.23779    1010.3255    912.81893   -33.117403     329.3192     2.171185  -0.81949525   -17.406334   -207.73651   -1.0136536   -20.165642    1.9589562  -0.71578288   -6.2238972   -207.73293  -0.98387136    -9.990955     197.4856   -1.0649912   -20.006315   -1.0969511   -1.0499441   -418.57196 
    7900    421.23779    995.50016    952.18847   -29.964439    328.89365    2.2124512  -0.75251428   -17.428126   -207.68844   -1.0570887   -20.104534    2.0770978  -0.68768181   -6.3278348   -207.68621   -1.0864239   -9.9844045    197.49851  -0.99680105   -20.069705   -1.0992618    -1.050933   -418.57484 
    8000    421.23779    971.68673     943.7214   -32.209898    328.92251    2.1920072  -0.72661389   -17.392261   -207.70937   -1.0831372   -20.122138     2.063627  -0.60771011   -6.3467534   -207.70031   -1.1104711   -9.9752855    197.49227  -0.94608065   -20.050528   -1.1015725    -1.051922   -418.57772 
    8100    421.23779    980.38266    951.01674    -81.81893    329.04435    2.1531582   -0.8780712   -17.452151   -207.70995   -1.0659331   -20.161366    2.0737508  -0.85808097   -6.4181657   -207.67682   -1.0553154   -10.020168    197.48818  -0.93352318   -20.066012   -1.1038831   -1.0529109    -418.5806 
    8200    421.23779    1002.2884    912.46894   -81.297232    329.72586    2.1860666  -0.93914647   -17.489335   -207.70067  -0.98426237   -20.210965    2.0922786  -0.84578039   -6.4163698    -207.6753   -1.0075771   -10.101604    197.49877   -0.9269442   -20.052716   -1.1061938   -1.0538999   -418.58347 
    8300    421.23779    973.20875    896.13986   -72.171278    329.59016    2.2013699  -0.90162112    -17.59182   -207.70133  -0.93961616     -20.2594    2.1281102  -0.78696475   -6.5553223   -207.70048   -0.9850076   -10.144406    197.50533  -0.92796279   -20.146188   -1.1085045   -1.0548888   -418.58635 
    8400    421.23779    1030.0746     931.8765   -25.872806    328.58889    2.2225629  -0.84113957   -17.670208   -207.68534  -0.89803786   -20.317038    2.1176945   -0.7156385   -6.6131714   -207.73315  -0.86014759   -10.211735    197.46338  -0.95094616   -20.142308   -1.1108152   -1.0558778   -418.58923 
    8500    421.23779     992.1327    895.34884   -73.305316    329.92582    2.2201521  -0.76157812   -17.756299   -207.72953   -0.8823517   -20.295581    2.0745627  -0.66993451   -6.6876078   -207.77384  -0.84385901   -10.146719    197.50189  -0.90835098   -20.147807   -1.1131259   -1.0568667    -418.5921 
    8600    421.23779    989.33229    932.06068   -101.60929    329.43187    2.1763595  -0.79896579   -17.679989    -207.7124  -0.80163641   -20.290926     1.993347  -0.71007974   -6.5941584   -207.70113  -0.81572204   -10.098882    197.52751  -0.92101316   -20.166479   -1.1154366   -1.0578557   -418.59498 
    8700    421.23779    993.35224    876.68312   -72.057986    329.51536    2.1823505   -0.8155955     -17.6623   -207.71474  -0.78830931   -20.266802    2.1104301  -0.73479641    -6.567882   -207.71162  -0.79435464   -10.126363    197.53161  -0.97365948   -20.144849   -1.1177472   -1.0588446   -418.59786 
    8800    421.23779    973.26517    911.42733   -106.75292    329.59678    2.1288004  -0.83173791   -17.646526   -207.70077  -0.74617324   -20.222017    2.0091666  -0.77899395   -6.5342813   -207.70074   -0.7631802    -10.09356    197.54119  -0.98012734    -20.08141   -1.1200579   -1.0598336   -418.60073 
    8900    421.23779     1008.893    923.51223   -129.14545     329.2744    2.0769071  -0.80811941   -17.729378   -207.71016  -0.80387144   -20.228201    1.9857251  -0.75418737   -6.6623269   -207.70106  -0.78169512    -10.07692     197.5456  -0.85565937   -20.011777   -1.1223686   -1.0608226   -418.60361 
    9000    421.23779    950.28063    862.98192   -147.28893    329.65379    2.1092806  -0.89722969   -17.750879   -207.70583  -0.82646976    -20.22865    2.0485234  -0.81956328   -6.7430669   -207.70374  -0.79291127   -10.056027    197.55782   -0.8679258   -19.994635   -1.1246793   -1.0618115   -418.60649 
    9100    421.23779     1037.916    944.82125   -115.99542    328.46828    2.1475301  -0.86414429   -17.819674   -207.69826  -0.80588388   -20.125861    2.1118822  -0.82286798   -6.7442699    -207.6776  -0.74002027       -9.903    197.57553  -0.87189073   -20.029732     -1.12699   -1.0628005   -418.60936 
    9200    421.23779    946.27101    879.02745   -152.75102    329.92564    2.2294301  -0.89674322   -17.841751   -207.67319  -0.80451484   -20.052225    2.1867461  -0.86213224    -6.785517   -207.65759  -0.80421905   -9.8308264    197.54705  -0.89029345    -20.08314   -1.1293006   -1.0637894   -418.61224 
    9300    421.23779    942.47381    855.78272   -179.95006    330.11118    2.2135299  -0.88336648   -17.861391   -207.66359  -0.84441117   -20.001601      2.19653  -0.80668056   -6.8390368   -207.65303  -0.84797518    -9.790336    197.59405  -0.87174964   -19.986952   -1.1316113   -1.0647784   -418.61512 
    9400    421.23779     936.9716    924.46365    -188.8567    328.98762    2.1633327  -0.91582025    -17.84572   -207.67876  -0.94666001   -20.043093    2.1245876  -0.88669124   -6.8799971   -207.70425  -0.91366551   -9.9144187    197.59494  -0.88676301   -19.905953    -1.133922   -1.0657673     -418.618 
    9500    421.23779      947.699    866.32453     -195.696    329.25831    2.1789426  -0.94126946   -17.930343   -207.71481  -0.96705843   -20.023521    2.1748225  -0.85675259   -6.9624614   -207.76281  -0.87809746   -9.9060511    197.61037  -0.85616262   -19.861932   -1.1362327   -1.0667563   -418.62087 
    9600    421.23779    954.02136    853.94422   -212.11978    329.46422    2.1907293  -0.89085882   -17.998623   -207.68046  -0.92875973   -19.972727    2.2224187  -0.78870627   -6.9602254   -207.71256  -0.82550877   -9.8185662    197.55126  -0.94068444   -19.818508   -1.1385434   -1.0677452   -418.62375 
    9700    421.23779    941.33889    843.76861   -211.76062    329.73068    2.1417785  -0.85888468   -18.030015   -207.70539  -0.87468973   -19.943038    2.1057563  -0.74578391   -7.0201771   -207.70902  -0.86859902   -9.7147995    197.53555    -0.994313   -19.813431    -1.140854   -1.0687342   -418.62663 
    9800    421.23779     905.4425    797.60113   -235.12815    329.98041    2.1390739  -0.90474327   -18.150597   -207.73997  -0.89547029   -19.890082    2.0671986  -0.90621962   -7.1264993   -207.70953  -0.93327458   -9.6364456    197.51593   -1.0299008   -19.833954   -1.1431647   -1.0697231    -418.6295 
    9900    421.23779    921.75947    861.43882   -245.33513    329.46315    2.1211054  -0.97409073   -18.142968   -207.71338  -0.94561967   -19.857405    2.0674068  -0.98729196   -7.1771345   -207.71929   -1.0058602   -9.6715134    197.50621  -0.97760746   -19.809292   -1.1454754   -1.0707121   -418.63238 
   10000    421.23779    978.69618    869.62125   -184.02269    329.70352    2.2073251  -0.97449631   -18.185951   -207.74794  -0.97613403   -19.741213    2.1059538  -0.94349644   -7.1782575   -207.77229   -1.0231465   -9.5698692    197.51044  -0.96851695   -19.775851   -1.1477861   -1.0717011   -418.63526 
   10100    421.23779    956.32553    875.18562   -218.80296    329.77181    2.2328244  -0.97821788   -18.276396   -207.79143  -0.98001592   -19.670154    2.1768277   -1.0357398   -7.2919403   -207.79744    -1.036109   -9.5002574    197.50122   -1.0319351   -19.679647   -1.1500968     -1.07269   -418.63813 
   10200    421.23779    975.46289    908.50636   -176.78202    329.15982     2.242916   -1.0080206   -18.275357     -207.767   -0.9998967   -19.664897    2.1681167   -1.0288892   -7.2840863   -207.73756   -0.9896256   -9.4937583    197.49993   -1.0513796    -19.63217   -1.1524074    -1.073679   -418.64101 
   10300    421.23779    962.60839    887.84883   -208.95091    329.04899    2.1775382  -0.95341391   -18.442707   -207.73849  -0.97563159    -19.72635     2.116408   -0.9736221   -7.4593571   -207.72601  -0.96374498   -9.5507192    197.49047    -1.027329   -19.548874   -1.1547181   -1.0746679   -418.64389 
   10400    421.23779    944.71427    861.71676   -265.10109    329.51484      2.21979   -1.0310906    -18.43481   -207.69924   -1.0470928   -19.650767    2.1514528  -0.94857455   -7.3823043    -207.6996    -1.036537    -9.498011    197.44406   -1.0380505   -19.519583   -1.1570288   -1.0756569   -418.64677 
   10500    421.23779    906.67516    825.02115   -252.56248    329.56881    2.2686858  -0.96853624   -18.543045   -207.72734   -1.0402493   -19.595126    2.1751634  -0.86193513   -7.5578088   -207.70098   -1.0448222   -9.4634347    197.47454  -0.97989028   -19.495589   -1.1593395   -1.0766458   -418.64964 
   10600    421.23779    899.74167     779.1606   -340.56085     329.4473    2.3302054  -0.90662194   -18.619534   -207.69844    -1.036745    -19.56074    2.2248127  -0.79856667   -7.5957699   -207.69207   -1.0680651   -9.5012948    197.50807  -0.98195534   -19.456068   -1.1616502   -1.0776348   -418.65252 
   10700    421.23779    854.39884    784.66329   -400.69335    329.51637    2.2750881  -0.94440018   -18.561003   -207.66869  -0.97204164   -19.558071    2.1607065  -0.85374921   -7.5480618   -207.61507  -0.99485437   -9.3969716     197.5408  -0.96577051   -19.358465   -1.1639608   -1.0786237    -418.6554 
   10800    421.23779    813.05645    752.45145   -406.72432    329.42426    2.2847748  -0.85460513    -18.58113   -207.65495  -0.99156952   -19.580404     2.195044  -0.73639455   -7.5747163   -207.64173    -1.036927   -9.3734491    197.51257   -1.0164439   -19.300391   -1.1662715   -1.0796127   -418.65827 
   10900    421.23779    762.52862    668.44161   -502.49771    330.33271    2.2473152  -0.80950791   -18.562841   -207.66871  -0.96295939   -19.484188    2.1962419  -0.71664878   -7.5525052   -207.62236  -0.97335072   -9.2615104     197.5009   -1.0225726   -19.247607   -1.1685822   -1.0806016   -418.66115 
   11000    421.23779    756.88475    689.45286   -527.52971    329.67843    2.2860154  -0.87634511   -18.604131   -207.68119  -0.97240052   -19.341762    2.1781044  -0.81577113   -7.5905043   -207.62624  -0.92318896   -9.1510395    197.48471   -1.0523389   -19.200262   -1.1708929   -1.0815906   -418.66403 
   11100    421.23779    705.28137    653.26335   -566.89405    329.95868    2.2219226  -0.83107613   -18.739567   -207.69796   -1.0419391   -19.316751      2.08426  -0.74001988   -7.7598948   -207.66428    -1.022947   -9.1583846    197.45824    -1.039471   -19.145615   -1.1732036   -1.0825795    -418.6669 
   11200    421.23779    705.65323    687.17226   -607.61908    328.88276    2.1983772  -0.97074543   -18.783743   -207.77042   -1.0076409   -19.279847    2.1408226  -0.85795332   -7.8408208   -207.72424  -0.94768809   -9.1660538    197.46574   -1.1239102   -19.046607   -1.1755142   -1.0835685   -418.66978 
   11300    421.23779    645.49385    643.69303   -699.83355    329.45078    2.1776062  -0.95972319   -18.730671   -207.78985   -1.0087132   -19.262523    2.1265103  -0.87730452   -7.6646984    -207.7847  -0.96106667   -9.1562381    197.41393   -1.0983522   -19.063186   -1.1778249   -1.0845575   -418.67266 
   11400    421.23779    621.18197    580.00676   -748.06552    329.64321    2.1665171   -0.8816351   -18.667348   -207.77762   -1.1077126    -19.26644    2.0999291  -0.86158665    -7.586251   -207.77469   -1.1030119   -9.0975496    197.35184   -1.1141392   -19.123458   -1.1801356   -1.0855464   -418.67553 
   11500    421.23779    584.11153     571.9124   -764.50237     329.3551    2.1787526  -0.86381908   -18.720887   -207.76608   -1.1148978   -19.238031    2.1016971  -0.92241074   -7.6534462   -207.74756   -1.0889626   -9.0348759    197.37815   -1.0827212    -19.14752   -1.1824463   -1.0865354   -418.67841 
   11600    421.23779    607.68584    538.77116   -799.91353    329.46291    2.2368376  -0.81175818   -18.724632   -207.72287   -1.0958118   -19.323902    2.1532662  -0.76153407   -7.6469705    -207.7014    -1.058912   -9.1676871    197.40065   -1.0763869   -19.238741    -1.184757   -1.0875243   -418.68129 
   11700    421.23779     596.8514    525.46138   -775.56138    329.38851    2.1751503  -0.81649346   -18.833931   -207.71617   -1.0731667   -19.282262    2.0737501  -0.79623658   -7.7157467   -207.70729   -1.0328306   -9.1092907    197.42755    -1.064562   -19.248738   -1.1870676   -1.0885133   -418.68417 
   11800    421.23779    664.60954    551.96931   -740.17363    328.99601    2.1567547  -0.85313619   -18.738764   -207.72863   -1.0462072   -19.335231    2.0107147  -0.80552722   -7.6832766   -207.74508   -1.0351647    -9.179892    197.38067   -1.0961028   -19.282435   -1.1893783   -1.0895022   -418.68704 
   11900    421.23779    633.76426    570.20088   -733.69081    329.26306    2.1975791  -0.83195397   -18.788348   -207.74181   -1.0394061   -19.331351    2.0622625  -0.77884088   -7.7411896   -207.79752   -1.0323347   -9.1926217    197.41011   -1.1321358    -19.36557    -1.191689   -1.0904912   -418.68992 
   12000    421.23779    673.17665    622.77921   -688.29436    328.88952    2.1928528   -0.6975346   -18.751007    -207.7172    -1.050792   -19.385396    1.9897677  -0.66163859   -7.6647385   -207.76582   -1.0861305   -9.2797391    197.39488   -1.0980218   -19.403276   -1.1939997   -1.0914801    -418.6928 
   12100    421.23779    706.75248     634.5356   -662.89397    329.47178     2.195883  -0.69639538   -18.752796   -207.78099   -1.0573691   -19.467341    2.0503709  -0.67241651   -7.6679636   -207.82633   -1.0895834    -9.321394    197.38478   -1.1359855   -19.375244   -1.1963104   -1.0924691   -418.69567 
   12200    421.23779    770.71387    708.84527   -565.04135    329.08193    2.2285008  -0.73250878   -18.638144   -207.76424   -1.0340581   -19.516196    2.1094673  -0.73332358   -7.5946135   -207.77672   -1.0701387   -9.3752201    197.40879   -1.1480983   -19.411535    -1.198621    -1.093458   -418.69855 
   12300    421.23779    762.70826    677.82838   -523.50105    329.89502    2.2211674   -0.7712691   -18.620895   -207.73264   -1.0146878   -19.534367    2.1309855  -0.76806246   -7.5574901   -207.73085   -1.0564096   -9.3658532     197.4296   -1.1135731   -19.412084   -1.2009317    -1.094447   -418.70143 
   12400    421.23779    783.45206    752.40424   -437.53978    329.57235    2.2299514  -0.73542432   -18.657341   -207.71194   -1.0372763   -19.526146    2.1927636  -0.66930052   -7.6510678   -207.67139    -1.056253   -9.3652783    197.38688   -1.1002979   -19.494824   -1.2032424    -1.095436    -418.7043 
   12500    421.23779     825.7635    765.64672   -384.04053     329.6916    2.2050918  -0.77043308   -18.769447   -207.70354    -1.037862    -19.56949    2.1376332  -0.67525907   -7.7838203   -207.63206  -0.99857944   -9.4235623    197.44021   -1.0427306   -19.507628   -1.2055531   -1.0964249   -418.70718 
   12600    421.23779     845.7326    796.72005   -371.34827    329.44659    2.1623102  -0.73886952   -18.788642   -207.69002   -1.0696497   -19.608327    2.1002428  -0.63194574    -7.836812    -207.6691   -1.0683084   -9.4715964    197.48096  -0.99263098   -19.492947   -1.2078638   -1.0974139   -418.71006 
   12700    421.23779    851.88965    795.68376   -352.22068     330.0689    2.1470936  -0.74932112   -18.760512   -207.66646   -1.0611861   -19.703594    2.0792784  -0.65152375   -7.7871689   -207.64131   -1.0767167   -9.5982817    197.52558  -0.98319542    -19.53118   -1.2101744   -1.0984028   -418.71294 
   12800    421.23779    877.97589    846.31752   -299.87043    330.09783    2.1139301  -0.78533606   -18.740506    -207.6648   -1.0614811   -19.705876    2.0792872  -0.73087459   -7.6588701   -207.64594    -1.047222   -9.5797663    197.53365  -0.99389995   -19.540954   -1.2124851   -1.0993918   -418.71581 
   12900    421.23779    942.41289    885.20144   -207.59685    329.45782    2.1244948  -0.81181069   -18.637202   -207.64881   -1.0066664    -19.69052    2.1264644  -0.69582634   -7.5778719   -207.64059  -0.95190002   -9.5477654     197.4977   -1.0120166   -19.591309   -1.2147958   -1.1003807   -418.71869 
   13000    421.23779    970.81727    870.99574   -153.99386    329.44811     2.131792  -0.75079459     -18.6287   -207.69091  -0.98686066   -19.682086    2.0955276  -0.68468412   -7.5387513   -207.68367  -0.96380548   -9.5193902     197.4609   -1.0885599   -19.594502   -1.2171065   -1.1013697   -418.72157 
   13100    421.23779    947.16206    917.98876   -144.07578    329.60448    2.1270937  -0.73600426   -18.672871   -207.71299   -1.0109758   -19.676552    2.0371861  -0.60786004   -7.5918353    -207.7203   -1.0071137   -9.4988892    197.47385    -1.113857   -19.538853   -1.2194172   -1.1023586   -418.72444 
   13200    421.23779    989.95265    966.31463   -131.65261    329.65463    2.1231913  -0.74341293   -18.720992   -207.72027   -1.0550616   -19.697579    2.0590303  -0.64649622    -7.736749   -207.73699   -1.0575816   -9.5147212    197.44071   -1.1849128   -19.519691   -1.2217278   -1.1033476   -418.72732 
   13300    421.23779    989.80711    974.65841   -71.733161    329.95425    2.0964915  -0.76409065   -18.737061   -207.76487   -1.0869726   -19.637673    2.0148005  -0.74722784   -7.7576488   -207.78538   -1.0343381   -9.4506536    197.43877   -1.1843154   -19.535037   -1.2240385   -1.1043365    -418.7302 
   13400    421.23779    1023.1442    997.66563   -126.57255     329.6425    2.1142392  -0.79356421   -18.735151   -207.82655    -1.132379    -19.61364    1.9834274  -0.76103631   -7.7925998   -207.86445   -1.0365224   -9.4559164     197.4673   -1.2043878   -19.486611   -1.2263492   -1.1053255   -418.73307 
   13500    421.23779    1023.1635     997.0826   -48.547832    329.90227    2.1515546  -0.69952563   -18.758601    -207.7991   -1.1530881   -19.604164     2.032399  -0.54613658   -7.8007298    -207.8377   -1.1486249   -9.4455983    197.38089    -1.130303   -19.508653   -1.2286599   -1.1063144   -418.73595 
   13600    421.23779    1042.9785    986.28959    -16.54641    329.88932    2.1973412  -0.69469422   -18.853227   -207.82405   -1.1490111    -19.61791    2.1590332  -0.53212157   -7.9802668   -207.83279   -1.1623176   -9.4335171    197.35593    -1.188032   -19.496773   -1.2309706   -1.1073034   -418.73883 
   13700    421.23779    1021.3174    967.27596   -18.969734    329.99698    2.1668464  -0.74845087    -18.86065   -207.83672   -1.1256085   -19.655032    2.1438239  -0.65540824   -7.9009214   -207.82626   -1.1219497    -9.521687    197.37333    -1.209184   -19.500043   -1.2332812   -1.1082924    -418.7417 
   13800    421.23779    1031.7792    973.24873   -77.906756    330.38818    2.1188449  -0.79105279   -18.790936   -207.79849   -1.1511613   -19.685382      2.09563   -0.7045912   -7.8549515    -207.7915   -1.1550396   -9.5096421    197.35228   -1.1850234    -19.47805   -1.2355919   -1.1092813   -418.74458 
   13900    421.23779     1064.878    979.02558    9.2904881    329.98889     2.085152  -0.78195846    -18.64515   -207.84257   -1.1271786   -19.656419    2.0395354  -0.71865906   -7.6960017   -207.83116   -1.1846024   -9.4685845    197.36071   -1.1595434   -19.529854   -1.2379026   -1.1102703   -418.74746 
   14000    421.23779    1103.3642    1026.1066    37.143313    329.89473    2.0773554  -0.79727549   -18.578092   -207.86245   -1.0753966   -19.666301    2.0065704  -0.72683254   -7.6469056   -207.84626   -1.1497596   -9.5067822     197.3299   -1.2212972   -19.623407   -1.2402133   -1.1112592   -418.75034 
   14100    421.23779    1068.8121    1048.9424    57.863871    330.23285    2.0781138  -0.84391955   -18.500982   -207.86537   -1.0682819   -19.700299    1.9894525  -0.75228034    -7.577087   -207.83388    -1.069279   -9.5359081    197.32582   -1.2653003   -19.613351    -1.242524   -1.1122482   -418.75321 
   14200    421.23779    1035.6184    1018.2368    39.240347    330.66652    2.1309734  -0.93583936   -18.472323   -207.86144   -1.1410635   -19.741923    2.1224353  -0.89289677   -7.4602412   -207.83888   -1.0730464    -9.560136    197.30149   -1.2075321    -19.60001   -1.2448346   -1.1132371   -418.75609 
   14300    421.23779    1060.8108    1020.5706    25.359008    330.27854    2.2304656  -0.99911005   -18.479186   -207.87274   -1.1920472   -19.789048    2.1947362  -0.93704662   -7.5132109   -207.84169   -1.1450682    -9.641969    197.30515   -1.2539568   -19.616595   -1.2471453   -1.1142261   -418.75897 
   14400    421.23779    1091.8376    1024.7944    36.094973     329.5968    2.1621564   -1.0377022   -18.391615   -207.87761   -1.1596438   -19.808478    2.1121694  -0.99918822   -7.4890431   -207.87756   -1.1704412   -9.6864837    197.30462   -1.2987472   -19.649515    -1.249456    -1.115215   -418.76184 
   14500    421.23779    1067.0015    1033.7844    21.261594    330.17241    2.1349354   -1.0560018   -18.404934   -207.85211   -1.1682031   -19.813226    2.0329537   -1.0541583   -7.5055941   -207.87686   -1.2203956   -9.6700051    197.29283   -1.2904361   -19.725962   -1.2517667    -1.116204   -418.76472 
   14600    421.23779     1094.868    989.41156    64.077994    330.07507    2.1622554   -1.1184176   -18.444107   -207.79827   -1.1958156   -19.827387    2.0372352   -1.1678083   -7.4731615   -207.85865   -1.2502424   -9.6286816    197.35407   -1.2539253   -19.760632   -1.2540774   -1.1171929    -418.7676 
   14700    421.23779    1124.1509    1065.8767    64.190247    329.73961     2.172203   -1.0711717   -18.442638    -207.8307    -1.170883   -19.843409    2.0691088   -1.1123354   -7.5407859   -207.90518   -1.1863112   -9.6719188    197.34567   -1.1651746   -19.743439    -1.256388   -1.1181819   -418.77047 
   14800    421.23779    1074.6469    1081.4702    77.892675    330.16351    2.1298875  -0.97886387   -18.481901   -207.82662   -1.0921643   -19.923583    2.0136744  -0.97982692   -7.5661306   -207.85409   -1.0543923   -9.7523302     197.3561   -1.1171186   -19.793365   -1.2586987   -1.1191709   -418.77335 
   14900    421.23779    1079.4406    1042.3167     76.47254    329.91925    2.1443736    -1.018323   -18.367876   -207.82751   -1.0543079   -19.948088    2.0944427  -0.96842132   -7.4248338   -207.83048    -1.044564   -9.7649691    197.34505   -1.0704346    -19.85828   -1.2610094   -1.1201598   -418.77623 
   15000    421.23779    1045.8602    1031.7013     32.25116    330.44561    2.0607327   -1.0348419   -18.177945    -207.8326   -1.0501805   -19.957022    2.0346688  -0.95970197   -7.2571267    -207.7863   -1.0904355    -9.811204    197.33902  -0.98437209   -19.875525   -1.2633201   -1.1211488   -418.77911 
   15100    421.23779    1090.7036    1033.9342    41.176125    329.88895    2.0725794    -1.164241   -18.175076   -207.82672  -0.99510375   -20.008298    2.0425816   -1.1555749     -7.24774   -207.82484   -1.0624582   -9.8849532    197.35965  -0.97450203   -19.887275   -1.2656308   -1.1221377   -418.78198 
   15200    421.23779    1099.5317    1068.1864    116.33023    329.77647    2.0621981   -1.1633339    -18.17873   -207.80564   -0.9473508   -19.992103    1.9531096   -1.0665409   -7.2249914   -207.81058  -0.99371596   -9.8024274    197.36356   -1.0095303   -19.838992   -1.2679414   -1.1231267   -418.78486 
   15300    421.23779    1111.0503    1085.2665     96.36018    330.29267    2.0390869   -1.1443537   -18.155977   -207.87129  -0.90818796   -19.998299    1.9127979   -1.0420183   -7.1245563   -207.86075  -0.88641362   -9.8125183    197.34023   -1.0496088   -19.871091   -1.2702521   -1.1241156   -418.78774 
   15400    421.23779    1170.0506    1069.6622    112.75463    329.78057    2.0710843    -1.065755   -18.068782   -207.92851  -0.92763217   -19.989603    1.9331332  -0.94853988   -7.0810511   -207.89141  -0.89098556   -9.8121442    197.32761   -1.0436091   -19.931728   -1.2725628   -1.1251046   -418.79061 
   15500    421.23779    1139.5753    1035.7328    153.02748    330.27745    2.0161717   -0.9792193   -18.061033   -207.95119  -0.93365429   -20.028824    1.8934888  -0.90264597   -7.1039694   -207.93175  -0.92741543   -9.8053134    197.29558    -1.007413   -19.853144   -1.2748735   -1.1260935   -418.79349 
   15600    421.23779    1117.0184    1099.1849    115.46389    330.04891     1.991094  -0.98978611   -18.166966   -207.93323  -0.92458923    -20.08607    1.8998119  -0.91273166   -7.2133481   -207.97739  -0.95161141   -9.8862885    197.22232  -0.97884959   -19.873401   -1.2771842   -1.1270825   -418.79637 
   15700    421.23779    1143.4948    1062.9449    108.55225    330.58295    1.9613174  -0.93605824   -18.201316   -208.02684  -0.97754332   -20.158765    1.8774377  -0.88841772   -7.3305724   -208.03781  -0.98677301    -10.00357    197.25252  -0.99031837   -19.917625   -1.2794948   -1.1280714   -418.79924 
   15800    421.23779    1197.5974    1090.4684    189.46718    329.63566    1.9936033  -0.91320192   -18.258233   -207.99168  -0.95371962   -20.160699    1.9216495  -0.78303041   -7.4171943   -207.97398  -0.91999635   -10.009807    197.20728     -1.00889   -19.976864   -1.2818055   -1.1290604   -418.80212 
   15900    421.23779    1147.1773    1109.9423     201.5029    329.93192    2.0525232  -0.92789036    -18.34842   -207.95095   -0.9368339   -20.152817    1.9416492  -0.84352579   -7.4594196   -207.97484  -0.87408149   -10.013067    197.19457   -1.0158623   -20.032136   -1.2841162   -1.1300493     -418.805 
   16000    421.23779    1155.6617      1076.42    214.01711     330.5243    2.0343919   -0.9691099    -18.40776   -207.97199  -0.90987429   -20.183156    1.9187262  -0.93009143   -7.4686897   -207.95346  -0.86469281   -10.030475    197.16602   -1.0148992   -20.036934   -1.2864269   -1.1310383   -418.80787 
   16100    421.23779    1156.7158    1123.0681    190.70892    330.28523     1.989754  -0.99634536    -18.40439   -207.98409  -0.93813052   -20.177698    1.8409623  -0.98306919    -7.539079   -208.00189  -0.89089774   -10.034246    197.21648  -0.99775919   -20.056527   -1.2887376   -1.1320273   -418.81075 
   16200    421.23779    1147.3188    1101.0003    171.00805    330.45312    2.0627198   -1.0067135   -18.408385   -207.98867  -0.94211915   -20.183675    1.8924522  -0.90683773    -7.509876   -207.99859  -0.89483233   -10.022705    197.25454   -1.0012722   -20.035384   -1.2910482   -1.1330162   -418.81363 
   16300    421.23779    1142.6616    1118.0538    206.92156    329.94539    2.0853604   -1.0159971   -18.503368     -207.967  -0.96599258   -20.140208     1.915192  -0.85798267    -7.612803   -207.98494   -1.0088243   -9.9455393    197.27944   -1.0153597   -20.074335   -1.2933589   -1.1340052   -418.81651 
   16400    421.23779    1183.1006    1137.4327    174.79802    330.08309    2.0816827  -0.99775558   -18.604146   -207.93091  -0.96355744   -20.178702    1.9714057  -0.93208778   -7.6696706    -207.9032  -0.96766327   -9.9884721    197.30215   -1.0253603   -20.060665   -1.2956696   -1.1349941   -418.81938 
   16500    421.23779    1216.0603    1167.3561    201.43158    329.84091    2.0538741   -0.9352792   -18.634095   -207.89954   -1.0602347   -20.199134    1.9268757  -0.87744878   -7.6560146   -207.89249   -1.0448365   -9.9883928    197.28896   -0.9945059   -20.026017   -1.2979803   -1.1359831   -418.82226 
   16600    421.23779    1214.3673    1149.9693    239.82284    329.91333    2.0677439  -0.92235116    -18.70913   -207.92455     -1.07978   -20.239688    1.9968063  -0.83999265   -7.7897197   -207.91937    -1.106826   -10.080636    197.29352  -0.95894314   -20.023188    -1.300291    -1.136972   -418.82514 
   16700    421.23779    1114.5874    1095.8828     154.5013    330.44874    2.0135325  -0.99605628   -18.737233    -207.9133    -1.053317   -20.214788    1.9945019  -0.92799164   -7.8916396   -207.91556   -1.0466577   -10.039206    197.29798  -0.99525605   -20.057273   -1.3026016    -1.137961   -418.82801 
   16800    421.23779    1170.5948    1092.0705    166.17036    329.93468    2.0528848   -1.0782876   -18.807979   -207.90002  -0.95132668   -20.244897     2.016065  -0.99367771   -7.9358534   -207.91533  -0.97128163   -10.088004    197.28892   -1.0584778   -20.022863   -1.3049123   -1.1389499   -418.83089 
   16900    421.23779     1184.264    1103.7068    195.72662    330.18349    2.0919417   -1.0598701   -18.832982   -207.92866  -0.92769909   -20.194722    2.0634955  -0.94694229   -7.9648096   -207.98567  -0.93608935   -10.028366    197.26834   -1.0821129   -20.060881    -1.307223   -1.1399389   -418.83377 
   17000    421.23779    1183.9567    1118.5934    207.17258    330.25868    2.0451983  -0.99943943   -18.871993   -207.94335  -0.97119797   -20.143427    1.9927831  -0.94811539   -8.0480721   -207.95206   -1.0327493   -9.9751728    197.25293   -1.0819981   -20.104039   -1.3095337   -1.1409278   -418.83664 
   17100    421.23779    1218.3977     1138.113     194.8398    330.13459    2.0293232  -0.94525441   -18.880691   -207.95492   -1.0264989    -20.16904    1.9275745  -0.93210401   -7.9953581   -207.94671   -1.0909079   -9.9559627    197.25275   -1.0666874   -20.088758   -1.3118444   -1.1419168   -418.83952 
   17200    421.23779    1186.3588    1162.3943    223.44759    330.60844    2.0190042  -0.97881581   -18.919067   -207.96095   -1.0506475   -20.224558    1.9330518  -0.99946495   -8.0493737   -207.93807   -1.0541846   -10.019264    197.26425   -1.1419538   -20.051984   -1.3141551   -1.1429058    -418.8424 
   17300    421.23779     1250.203    1182.1691    289.72803    330.35003    1.9727195    -1.019683   -18.871475   -207.96287   -1.0603407   -20.251637     1.923068  -0.95428152   -7.9199524   -207.94814   -1.0517235   -10.089879    197.23476   -1.1563182   -20.062598   -1.3164657   -1.1438947   -418.84528 
   17400    421.23779    1240.4903    1226.5475    320.59943    330.81391     1.957118   -1.1349768   -18.900092    -207.9942   -1.1089728   -20.302471    1.9227901   -1.0657562    -7.947694   -208.01197   -1.0715483   -10.150078    197.23224   -1.1744359   -20.084734   -1.3187764   -1.1448837   -418.84815 
   17500    421.23779    1269.6282    1227.9575    381.43862    330.60439    1.9617835   -1.0539544    -18.95731     -208.011   -1.2252585   -20.278277    1.9222527   -0.9595849   -8.0284128   -208.03739   -1.1959528    -10.12866    197.16836   -1.2010413   -20.079325   -1.3210871   -1.1458726   -418.85103 
   17600    421.23779     1274.784    1235.3128    415.57238     330.7844    1.9711301   -1.0498189   -19.064718   -208.06557   -1.2205046   -20.345514    1.9477218  -0.98923181   -8.0653473   -208.06617   -1.1802699   -10.186686    197.15076    -1.188874   -20.083529   -1.3233978   -1.1468616   -418.85391 
   17700    421.23779    1287.1252    1244.6702    421.51191    331.36193    1.9203357   -1.1320844   -19.108508   -208.04774    -1.225641   -20.340931    1.8757016   -1.0833638   -8.1087902   -208.05677   -1.1393973   -10.163861    197.17847   -1.2463913   -20.108393   -1.3257085   -1.1478505   -418.85678 
   17800    421.23779    1326.6508    1308.3006    446.63166    330.57842    1.9116267   -1.1219031   -19.118748   -207.98802   -1.2324549   -20.316592    1.8702063   -1.0509859   -8.1955449   -207.96911   -1.1491855   -10.091361    197.17399   -1.2502308   -20.101687   -1.3280191   -1.1488395   -418.85966 
   17900    421.23779    1328.1081      1268.93    527.66604    331.49791    1.8512176   -1.0864194   -19.244097   -207.97201   -1.2085221   -20.275363    1.7908455   -1.0120875   -8.3064265   -207.92403   -1.1679172    -10.08987    197.17129   -1.2455495   -20.127276   -1.3303298   -1.1498284   -418.86254 
   18000    421.23779    1434.6337    1386.6702    634.97229    330.32412     1.813651   -1.0408459   -19.334306   -207.98344   -1.1795548   -20.245554     1.750958   -1.0355586   -8.4569524   -207.95502   -1.2249277   -10.118145    197.16153   -1.3172711   -20.138365   -1.3326405   -1.1508174   -418.86541 
   18100    421.23779    1476.3854    1390.3322    697.52309     330.7479    1.8049882   -1.0445784   -19.388123   -207.91994    -1.188535   -20.217391    1.6922388   -1.0398155   -8.5633111   -207.91435   -1.2027433   -10.108193    197.16627   -1.3102417   -20.168423   -1.3349512   -1.1518063   -418.86829 
   18200    421.23779    1477.0469    1434.6229    737.84916    331.05797    1.8198397   -1.0729506    -19.48139   -207.89013   -1.2492145   -20.197557    1.7055738   -1.1100774   -8.6225309   -207.89807   -1.3067214   -10.065522    197.23361   -1.3062462   -20.213289   -1.3372619   -1.1527953   -418.87117 
   18300    421.23779    1494.1098    1419.1741    741.08215    330.74433    1.8607253   -1.0025141   -19.577954   -207.86819   -1.2865766    -20.19167    1.7496593  -0.99288803   -8.7486021     -207.912   -1.3239543   -10.047673    197.25828   -1.3049155   -20.207544   -1.3395725   -1.1537843   -418.87404 
   18400    421.23779    1511.7905    1431.1354     750.3975    330.57693    1.8456461  -0.95802662   -19.587053   -207.84991   -1.3119145    -20.21172    1.7319725  -0.89910565    -8.678144   -207.87459   -1.3121624   -10.061518    197.28253   -1.3612937   -20.141408   -1.3418832   -1.1547732   -418.87692 
   18500    421.23779     1463.989    1391.7897    698.80338    331.14297     1.843227  -0.90030287   -19.577107   -207.80876   -1.3585176   -20.238999     1.721795  -0.88773287   -8.6624848   -207.81175   -1.3534611   -10.140392    197.29344   -1.4091409   -20.049223   -1.3441939   -1.1557622    -418.8798 
   18600    421.23779    1460.0988    1382.6038    723.89285     331.2394    1.8327662  -0.84719675   -19.590476   -207.81477   -1.3517669   -20.165277    1.7410715  -0.80574655   -8.7419689    -207.8124    -1.392925   -10.064589    197.23814   -1.4124151    -19.91825   -1.3465046   -1.1567511   -418.88268 
   18700    421.23779    1434.3733    1359.3151    652.84903    330.63632    1.8168426  -0.78169606    -19.57101    -207.9122   -1.3763184   -20.108322    1.7225788  -0.75651314   -8.6470241   -207.88957   -1.3901254   -9.9393142    197.23574   -1.3463246   -19.848558   -1.3488153   -1.1577401   -418.88555 
   18800    421.23779    1448.6427    1337.9743    565.63681    330.38569    1.8450238  -0.88833522   -19.547385   -207.93362   -1.3479731   -19.991617    1.7426267  -0.78436981   -8.6346759   -207.89406   -1.3298208   -9.8429707    197.25385    -1.320275    -19.78649   -1.3511259    -1.158729   -418.88843 
   18900    421.23779    1391.5655    1258.8335     511.0375    330.85953     1.872698  -0.85380059   -19.508571   -207.91087   -1.2674938   -19.900248    1.7738443  -0.69893691    -8.618263   -207.85764   -1.2187165   -9.7145701    197.25404   -1.2941809   -19.729691   -1.3534366    -1.159718   -418.89131 
   19000    421.23779    1305.9812    1235.9352    509.57682    331.16395     1.863231  -0.89498019    -19.45467   -207.92076    -1.205823   -19.798184    1.7490294  -0.71343151   -8.5442749   -207.91406   -1.1503182   -9.6145289    197.24069   -1.3133982    -19.64369   -1.3557473   -1.1607069   -418.89418 
   19100    421.23779    1283.1349    1272.0026    469.88054    330.78804    1.8961651   -0.8217085    -19.43594   -207.90736   -1.1806757   -19.730629    1.8572982  -0.63593168   -8.4646446   -207.89187   -1.1646491   -9.5525504    197.23153   -1.2760038   -19.641364    -1.358058   -1.1616959   -418.89706 
   19200    421.23779    1256.9532    1187.0169    373.88487    331.09059    1.8838834  -0.82336854   -19.402721   -207.92586   -1.1853667   -19.628148    1.7978513   -0.6837489   -8.4672162   -207.93034    -1.250614   -9.4299669    197.25099   -1.2857217   -19.604979   -1.3603687   -1.1626848   -418.89994 
   19300    421.23779    1235.9911    1194.5434    324.89375    330.39772     1.891006  -0.86768345   -19.377616   -207.91566   -1.2172666   -19.569884    1.8192005  -0.76865703   -8.4690725   -207.94447   -1.2058216   -9.4176303    197.21142   -1.2548674   -19.599889   -1.3626793   -1.1636738   -418.90281 
   19400    421.23779    1245.9003    1189.2135    368.68262    330.14506     1.961595  -0.91415213   -19.446979   -207.99136   -1.2320868   -19.579862    1.9027651  -0.92652662   -8.5241557   -207.98291   -1.2085889     -9.40783    197.21349   -1.3096441    -19.57444     -1.36499   -1.1646627   -418.90569 
   19500    421.23779    1210.8185    1164.5501    242.57641    330.63745    1.9651124  -0.93263729   -19.432441    -207.9808   -1.2389906   -19.534172    1.8779062  -0.90284406   -8.5019596   -207.96608   -1.2366144   -9.3886951    197.12884   -1.3400527   -19.550936   -1.3673007   -1.1656517   -418.90857 
   19600    421.23779     1198.928    1178.6234    294.70498     329.4327    1.9686697  -0.95871287   -19.408744   -207.99814   -1.2507329    -19.54957    1.8822222  -0.92425522   -8.4933776   -207.95503   -1.2480087   -9.4012763    197.12921    -1.308745   -19.521763   -1.3696114   -1.1666407   -418.91144 
   19700    421.23779    1191.1811    1119.1202    212.04699    330.36149    2.0198401  -0.91114934   -19.390395   -208.04574   -1.2783737   -19.530721    1.9668815  -0.85673077   -8.5197682   -208.02834   -1.2827701   -9.3909581    197.11683    -1.312044   -19.495462   -1.3719221   -1.1676296   -418.91432 
   19800    421.23779    1180.9164    1138.7951    180.38365    330.49101    2.0002673  -0.98807614   -19.369752   -208.04303   -1.2524316   -19.581038    1.8882811  -0.95959314   -8.4996644    -208.0436   -1.2289335   -9.3925337    197.12212   -1.3443027   -19.453467   -1.3742327   -1.1686186    -418.9172 
   19900    421.23779    1124.4515    1091.9593    160.17198    330.40917    2.0058834   -1.0090167   -19.425502   -208.02429   -1.2221986   -19.517871    1.8912808   -1.0000498   -8.5482766   -208.05247   -1.1683893   -9.3160456    197.09397   -1.3729489   -19.453391   -1.3765434   -1.1696075   -418.92008 
   20000    421.23779    1112.3789    1088.6348    143.77929    330.07708    2.0061716  -0.94826556   -19.416411   -208.04203   -1.3410266   -19.508605    1.8657986   -0.8706198   -8.5245079   -208.04241   -1.2968689    -9.293597    197.08093   -1.3547089   -19.444576   -1.3788541   -1.1705965   -418.92295 
   20100    421.23779    1148.2646    1068.6077    79.652896    329.82217    2.0773553  -0.93802835   -19.385761   -208.10122   -1.4041471   -19.514082    1.9541459  -0.87877492   -8.4348471   -208.07637    -1.400407   -9.3189966    197.11714   -1.2351607   -19.461805   -1.3811648   -1.1715854   -418.92583 
   20200    421.23779    1097.3445    1062.5667    63.626486     330.4954    2.0308233  -0.98304568   -19.367246   -208.09265   -1.3504552   -19.586347     1.931215  -0.86168614   -8.4180782   -208.05722   -1.3764394   -9.4243536    197.05095   -1.2505949   -19.424152   -1.3834755   -1.1725744   -418.92871 
   20300    421.23779    1090.6863    1038.0674    23.856805    330.06116    2.0360579    -1.002121   -19.323361   -208.11681   -1.2690124   -19.584224    1.9972263   -0.8775119   -8.3946938   -208.08355   -1.2856513   -9.4882516    197.05845   -1.3113626   -19.354495   -1.3857861   -1.1735633   -418.93158 
   20400    421.23779    1133.4735    1052.8609    32.796458    329.75282    2.0245171  -0.99270894   -19.299186    -208.0729   -1.2450342    -19.60484    1.9855989  -0.89951707   -8.4396696   -208.03586   -1.2451871   -9.5097118     197.0883   -1.3915662   -19.346279   -1.3880968   -1.1745523   -418.93446 
   20500    421.23779    1044.1382    1000.2495   -20.670503    330.93185    2.0291468  -0.98790612   -19.380843   -208.00881   -1.2564383   -19.672678    1.9809988  -0.92497744   -8.5076434   -207.98847   -1.2652835   -9.5330552    197.08309   -1.3406286   -19.405226   -1.3904075   -1.1755412   -418.93734 
   20600    421.23779    1078.3921    1039.9722   -42.543834    329.83585    2.0045085   -1.0058032   -19.343082   -207.99243   -1.2506045    -19.65816    1.8840358  -0.92949614   -8.4612713   -208.01652   -1.2267071   -9.4788024    197.14451   -1.3516194   -19.387099   -1.3927182   -1.1765302   -418.94021 
   20700    421.23779    1004.9236     1021.658   -32.695464      330.061    2.0254436    -1.027689   -19.310402    -208.0755   -1.3040989   -19.608539    1.9407983  -0.95606894   -8.4526009   -208.07542   -1.2606883   -9.3640581    197.16976   -1.3748299   -19.443592   -1.3950289   -1.1775192   -418.94309 
   20800    421.23779    1042.2882    1001.9077   -38.431686    329.75123    2.0074738   -1.0929986   -19.272668   -208.04391   -1.2446422   -19.608413    1.9407994   -1.0527655   -8.4137569   -207.98937   -1.2063152   -9.3898049     197.1364   -1.3235063   -19.492094   -1.3973395   -1.1785081   -418.94597 
   20900    421.23779    1000.3143    1018.3975   -22.233144    330.21153    1.9896779   -1.1119319   -19.184683   -207.99986   -1.2484263   -19.584055    1.9581913     -1.05019   -8.2775477   -207.93802   -1.2416755   -9.3902064    197.10824   -1.3316867   -19.499296   -1.3996502   -1.1794971   -418.94885 
   21000    421.23779    1067.4417    1014.1185   -50.620054    329.95891     1.943016   -1.1303347   -19.258575   -207.96662   -1.2545351   -19.576052    1.9032173   -1.0644343   -8.2799878   -207.94413   -1.1975128   -9.4547833     197.1149   -1.3300463   -19.440555   -1.4019609    -1.180486   -418.95172 
   21100    421.23779    1011.4048    998.25728   -61.901682    330.57806    1.8951484    -1.193682   -19.243434   -208.01604    -1.269514   -19.586833    1.8541034   -1.1452002   -8.3172962    -207.9905   -1.2315687   -9.4754947      197.107    -1.318248   -19.428252   -1.4042716    -1.181475    -418.9546 
   21200    421.23779    1005.7127    1003.7401   -65.849484    330.25864     1.863489   -1.2461516   -19.158892   -208.05983    -1.233759    -19.59759    1.8171813    -1.182498   -8.2985167   -208.03547   -1.1831634   -9.4220401    197.15531   -1.2795614   -19.487509   -1.4065823   -1.1824639   -418.95748 
   21300    421.23779    965.54286    951.89233   -120.47982    331.09749    1.8849171   -1.2571847    -19.16763   -207.99933   -1.2706829   -19.594859    1.8227417   -1.2856647   -8.3367021   -208.02415   -1.2825771   -9.3851991    197.16341   -1.2684955   -19.500593   -1.4088929   -1.1834529   -418.96035 
   21400    421.23779    1039.9935     1010.593    -61.36448    329.98433    1.8549328   -1.2519455   -19.171967   -207.96948   -1.2813733   -19.571788    1.7743017   -1.2476002   -8.2946862   -207.94801   -1.2740772   -9.3882464    197.17114   -1.2516522   -19.464763   -1.4112036   -1.1844418   -418.96323 
   21500    421.23779    996.56497    981.08049   -76.143144    330.37234    1.8622791    -1.284995   -19.132275   -207.97264   -1.2223721   -19.595959    1.7025086    -1.280201   -8.2343493   -207.98664   -1.2427064    -9.385746    197.17715   -1.1399424   -19.481876   -1.4135143   -1.1854308   -418.96611 
   21600    421.23779    1012.5477    993.87989   -92.084794    330.38296    1.8510949   -1.3339809    -19.03821   -207.99693   -1.2015414   -19.588864     1.696807   -1.2473126   -8.1596567   -208.00287   -1.2277259   -9.3891424    197.17431   -1.1458589      -19.507    -1.415825   -1.1864197   -418.96898 
   21700    421.23779    1036.0581    977.02319   -33.403865    329.93936    1.8233186   -1.2309155   -18.952931   -207.98387   -1.1479204   -19.616946     1.770503   -1.1180333   -8.1542842   -208.00977   -1.1583133   -9.4446315    197.22888   -1.1625212   -19.546785   -1.4181357   -1.1874087   -418.97186 
   21800    421.23779    1015.3346    967.08889     -85.4487    330.40497     1.843105    -1.250102   -18.867292   -207.92664   -1.1488119   -19.621768    1.8458036   -1.1111257   -8.0288248   -207.94509    -1.188923   -9.4451304    197.18453   -1.2002271   -19.616867   -1.4204463   -1.1883976   -418.97474 
   21900    421.23779    1025.3063     980.9604   -78.561571     329.8705    1.8505792   -1.2962542   -18.787868   -207.92419   -1.1215374   -19.672581    1.8513677    -1.178196    -7.841521   -207.94538   -1.1474458   -9.5009241     197.1719   -1.1689023   -19.699219    -1.422757   -1.1893866   -418.97761 
   22000    421.23779    965.47715    950.99721   -139.31435    330.53466    1.8248991   -1.2674773   -18.679797   -207.95514   -1.0984901   -19.725483    1.7858456   -1.1608123   -7.7481205   -207.93697    -1.096577    -9.527896    197.18725   -1.2163419   -19.754457   -1.4250677   -1.1903756   -418.98049 
   22100    421.23779    989.23161    987.55373   -110.89034    329.70216    1.8511083   -1.2386157     -18.6126   -207.94584   -1.1855508    -19.79888    1.7719137   -1.2090521   -7.6550389   -207.91643   -1.1817259   -9.6391927    197.22971   -1.2185955   -19.778019   -1.4273784   -1.1913645   -418.98337 
   22200    421.23779    1062.6846     957.5482   -54.594241     329.2717    1.8625901   -1.1234005   -18.579127   -207.90837   -1.1727702   -19.856821    1.7818934   -1.0749334    -7.672618   -207.91681    -1.184219   -9.7214632    197.21058   -1.1641663   -19.773477   -1.4296891   -1.1923535   -418.98625 
   22300    421.23779    982.33573    973.45149   -116.49154    329.84555    1.7852785   -1.0851728   -18.579059   -207.94235   -1.2446316   -19.853222    1.6972017   -1.0376882   -7.6600856   -207.94787   -1.2586442   -9.7067957    197.19604    -1.163447   -19.767057   -1.4319997   -1.1933424   -418.98912 
   22400    421.23779     995.6024    940.21779   -104.59712    329.97626    1.7884812   -1.1490505   -18.551704   -207.98579   -1.2238257   -19.907141    1.7012986    -1.105102   -7.6600893   -208.03558    -1.213197   -9.7532342    197.16235   -1.2237146   -19.769557   -1.4343104   -1.1943314     -418.992 
[...]
  999100    421.23779    1134.8644    1109.5709    56.423155    330.96575    -20.57338   -10.616997   -47.980085   -230.69324   -10.831423   -48.034864   -20.602111   -10.445552   -37.223316   -230.55543   -10.786811   -38.058743    174.57251   -10.835695   -47.873175   -24.002724   -10.853447   -447.09118 
  999200    421.23779    1129.2997    1100.5859    121.08853    330.92869   -20.519214    -10.62619   -47.957383   -230.66696   -10.778507   -48.028707   -20.564757   -10.445267   -37.194967   -230.54961   -10.709937    -38.04872    174.55965   -10.816394   -47.840373   -24.005035   -10.854436   -447.09406 
  999300    421.23779     1136.157    1116.7986    81.962474    330.88111   -20.497931   -10.629239    -47.90478   -230.59419   -10.789572   -48.066379    -20.51459   -10.479884   -37.186949   -230.48802   -10.698411   -38.100464    174.53788   -10.896571   -47.811851   -24.007346   -10.855425   -447.09694 
  999400    421.23779    1098.7649    1093.3796    60.492655    331.10848   -20.540899   -10.570589   -47.902338   -230.58303   -10.818693   -48.018918   -20.555738   -10.398271   -37.155283   -230.45607   -10.736938   -38.059614    174.55511   -10.887526   -47.810159   -24.009656   -10.856414   -447.09982 
  999500    421.23779     1080.103    1097.7068    66.522608    330.53572   -20.546928   -10.579259   -47.956449   -230.59504   -10.860312   -48.005356   -20.606048   -10.441143   -37.172759   -230.48827   -10.778115   -38.125816    174.55725   -10.913719   -47.757625   -24.011967   -10.857403   -447.10269 
  999600    421.23779    1086.5434    1055.1674   -47.893822    331.23785   -20.562141   -10.548577   -47.982161   -230.59048   -10.870037   -48.031601   -20.635211   -10.431248   -37.172943   -230.47259   -10.812447   -38.099584    174.53802   -10.886313   -47.802914   -24.014278   -10.858392   -447.10557 
  999700    421.23779    1090.3696    1082.1193    16.746838    330.75348   -20.607576   -10.535401   -47.975516   -230.59791   -10.903265   -48.031209   -20.687437   -10.444309   -37.245219    -230.4284   -10.845121   -38.076737     174.5456   -10.910554   -47.779083   -24.016588   -10.859381   -447.10845 
  999800    421.23779    1079.3294    1012.0045    -17.52996    331.42762   -20.610888   -10.555947   -47.896425   -230.64219   -10.878586   -48.015355   -20.661252   -10.437511   -37.148584   -230.48308    -10.80613   -38.058218    174.56307   -10.945826   -47.779914   -24.018899    -10.86037   -447.11132 
  999900    421.23779    1067.2638    1031.2316   -2.3900368    330.50909   -20.631795   -10.601152   -47.905192   -230.64434   -10.907971   -48.018896   -20.642677   -10.414071   -37.178774   -230.47019   -10.815135   -38.074731    174.57834   -10.898044   -47.746394    -24.02121   -10.861359    -447.1142 
 1000000    421.23779    1075.2635    1025.5066   -45.283598    330.94554    -20.71713   -10.597962   -47.894777   -230.65362   -10.947068   -48.003024   -20.684216   -10.430759   -37.092671   -230.50213   -10.873313   -38.060728     174.6044   -10.879173   -47.774144    -24.02352   -10.862348   -447.11708 
 1000100    421.23779     1028.455    1028.8288   -60.799625    331.19431    -20.75372   -10.584861   -47.882189   -230.64701   -10.905322   -48.027342    -20.74679   -10.431212   -37.099613   -230.51237   -10.860458   -38.081306    174.52072    -10.89668   -47.711847   -24.025831   -10.863337   -447.11995 
 1000200    421.23779    1026.1322    1063.5046   -33.659811    330.37545   -20.738149   -10.586091   -47.899716   -230.67081   -10.902333   -48.018049   -20.754552   -10.404316   -37.172332    -230.5622   -10.830477   -38.054342    174.51784   -10.893972   -47.721852   -24.028142   -10.864326   -447.12283 
 1000300    421.23779    1042.3903    1025.3488   -89.719887    330.18788   -20.735105   -10.600067   -47.939222   -230.66053   -10.880672   -47.997018   -20.780611   -10.423431   -37.211465   -230.51903   -10.800948   -38.050977    174.48666   -10.933278   -47.743405   -24.030452   -10.865315   -447.12571 
 1000400    421.23779    1042.9887    1025.7342   -106.44936    331.07887   -20.747961   -10.595506   -47.971982   -230.64019   -10.911091   -48.034796   -20.807777   -10.430939    -37.25674   -230.47253   -10.874415   -38.153766    174.49335   -10.947012   -47.772413   -24.032763   -10.866304   -447.12858 
 1000500    421.23779    1034.6896    1022.2626   -76.423951    330.99051   -20.749834   -10.626211   -47.973247   -230.64603   -10.883682   -48.083856   -20.822062   -10.419559   -37.273367   -230.48468   -10.854437   -38.175291    174.50305   -10.981457   -47.782056   -24.035074   -10.867293   -447.13146 
 1000600    421.23779    1056.5741    989.29396   -79.826775    330.90848   -20.768267   -10.653213   -47.930816   -230.64501   -10.930115   -48.090865   -20.868653   -10.426327   -37.200362   -230.51852   -10.910977   -38.128403     174.5371   -11.016011   -47.834982   -24.037384   -10.868282   -447.13434 
 1000700    421.23779    1002.1914     972.5998   -92.871208    331.10108   -20.749186   -10.667203   -47.906353   -230.65197   -10.990008   -48.109402   -20.839756    -10.46707   -37.180688   -230.53017   -10.919597   -38.194801    174.57722   -11.022478   -47.872997   -24.039695    -10.86927   -447.13722 
 1000800    421.23779    928.93717    1003.3376   -119.37484    330.88584   -20.769576   -10.652471    -47.87532    -230.6227   -11.013629    -48.12002   -20.831529    -10.49332   -37.074748   -230.52906   -10.974187   -38.185803    174.61899    -11.02463   -47.838019   -24.042006   -10.870259   -447.14009 
 1000900    421.23779    948.12799    984.52147    -146.5218    330.71171   -20.803676   -10.638039   -47.894129    -230.5751   -11.015437   -48.162818   -20.869509   -10.544701   -37.095039    -230.4874   -10.976254   -38.213816    174.60636   -11.034414   -47.876309   -24.044317   -10.871248   -447.14297 
 1001000    421.23779    998.40849    967.61275   -148.69088    330.65599   -20.863312   -10.640981   -47.865876    -230.5452   -10.969102   -48.112686   -20.892723    -10.54256   -37.085936   -230.41789   -10.858161   -38.152789    174.61966   -11.076629   -47.919221   -24.046627   -10.872237   -447.14585 
 1001100    421.23779    1006.6852    990.60027    -157.1745    330.74138   -20.835795    -10.61303   -47.827929   -230.52645   -10.953951   -48.117717   -20.841955   -10.511098   -37.083117   -230.38407    -10.83472   -38.147545    174.64318   -11.037213   -47.888639   -24.048938   -10.873226   -447.14872 
 1001200    421.23779    994.55917    954.16447   -148.10444    330.72806   -20.846267   -10.621735   -47.840372   -230.50747   -10.925989   -48.116539   -20.866858   -10.526828    -37.05302   -230.36712   -10.855027   -38.194422    174.64909   -11.019828    -47.91959   -24.051249   -10.874215    -447.1516 
 1001300    421.23779    978.37618    982.27925   -123.03227    330.14138   -20.773447   -10.665703   -47.903781   -230.54452   -10.931004   -48.073769   -20.804532   -10.524958   -37.116256    -230.3938    -10.89559   -38.126048    174.64608   -10.974977   -47.894024   -24.053559   -10.875204   -447.15448 
 1001400    421.23779    953.40667    967.26986   -203.28118    330.78708   -20.747686    -10.65807   -47.888005   -230.51753   -10.986346   -48.077983   -20.815627   -10.494873   -37.136313    -230.3835   -10.962277   -38.138493    174.64423   -11.007312   -47.916636    -24.05587   -10.876193   -447.15735 
 1001500    421.23779    924.99712    919.52031   -251.49477    331.27912   -20.727415   -10.633133   -47.935575   -230.56913   -11.006584   -48.086993   -20.780335    -10.49369   -37.197076   -230.45778   -10.990512   -38.138838    174.67746   -11.000769   -47.882732   -24.058181   -10.877182   -447.16023 
 1001600    421.23779    970.05352    917.32036   -230.95552    330.78305   -20.753186    -10.66698   -47.967623   -230.60579   -10.989352   -48.104816   -20.815469   -10.480217   -37.271129   -230.52075   -11.006362   -38.120168    174.64288   -10.941915   -47.850671   -24.060491   -10.878171   -447.16311 
 1001700    421.23779    908.55835     890.9329   -245.29788    331.16942   -20.730315   -10.702448   -47.987167   -230.62283     -11.0727   -48.092484   -20.754057   -10.502025   -37.303934   -230.53222   -11.060336   -38.111851    174.57984   -10.956927   -47.821857   -24.062802    -10.87916   -447.16599 
 1001800    421.23779    885.06843    890.63106   -287.00318    330.94991   -20.771018   -10.732121   -47.989989   -230.63956   -11.028381   -48.042582   -20.812053   -10.546523   -37.295041   -230.56725     -10.9902   -38.086034    174.53971   -10.979928   -47.817525   -24.065113   -10.880149   -447.16886 
 1001900    421.23779    895.60584    885.97594   -299.74994    330.76017   -20.789054   -10.693438   -48.035195   -230.65745    -10.91404   -48.018025   -20.818917    -10.52806   -37.283232   -230.55042   -10.921933   -38.060729    174.53902   -11.007366   -47.854574   -24.067423   -10.881138   -447.17174 
 1002000    421.23779    921.99736    888.00194   -324.06496     330.3101   -20.823687    -10.65557   -47.989825   -230.66229   -10.966918   -48.006368   -20.839032   -10.503919   -37.242188   -230.56551   -10.879109   -38.043991    174.50329   -10.990193   -47.847575   -24.069734   -10.882127   -447.17462 
 1002100    421.23779    844.08182    844.34981   -332.57872    330.96201   -20.832573   -10.709085   -47.942047   -230.72118   -10.975863   -48.015112   -20.792562   -10.558984   -37.222621   -230.62514   -10.885407    -38.05623    174.45988   -10.944857   -47.829365   -24.072045   -10.883116   -447.17749 
 1002200    421.23779    833.59074    872.43354   -346.40864    330.71038   -20.859637   -10.717692   -47.868649   -230.73798    -10.93993   -47.993183    -20.88142   -10.563479   -37.108921   -230.61687   -10.821775   -38.102881    174.42047    -10.90786   -47.796666   -24.074355   -10.884105   -447.18037 
 1002300    421.23779    903.49068    847.78941   -350.41593    330.09336   -20.847723    -10.68344   -47.851998   -230.75635    -10.89547   -48.032545   -20.921596   -10.511793   -37.121697   -230.64085   -10.767302   -38.109474     174.4522   -10.939876   -47.811722   -24.076666   -10.885094   -447.18325 
 1002400    421.23779    845.56437    815.07091   -478.43407    331.30887   -20.819521    -10.62578    -47.86473     -230.738   -10.929785   -48.083156   -20.886676    -10.45169   -37.122018   -230.60311   -10.766407   -38.114651    174.44819   -10.915759   -47.851163   -24.078977   -10.886083   -447.18612 
 1002500    421.23779    802.85142    823.83301   -399.76891    330.68383   -20.835438   -10.593876   -47.740437   -230.74913   -10.904315   -48.087268   -20.919829   -10.427569   -37.001038   -230.60423   -10.826525   -38.128995    174.47929   -10.860782   -47.878602   -24.081287   -10.887072     -447.189 
 1002600    421.23779    860.39892    794.47546   -427.00322    330.69039   -20.822994   -10.651356   -47.692199   -230.73649   -10.893047   -48.149724   -20.876987   -10.479958    -36.91385    -230.5964   -10.852141   -38.187085    174.49401   -10.848753    -47.82725   -24.083598   -10.888061   -447.19188 
 1002700    421.23779    857.44973    834.75105   -417.46843    330.08384   -20.827224   -10.730382   -47.720743    -230.7146   -10.916158   -48.206979   -20.854733   -10.614922   -36.914207    -230.5765   -10.849524   -38.274232    174.50611   -10.910972   -47.811539   -24.085909    -10.88905   -447.19475 
 1002800    421.23779    828.50957    766.02063   -469.12794    330.88273   -20.786431   -10.749083   -47.748965   -230.68449   -10.905153   -48.204087   -20.803984   -10.626343   -36.935496   -230.55578   -10.900455   -38.268208     174.5022   -10.948195   -47.806234   -24.088219   -10.890039   -447.19763 
 1002900    421.23779    844.65824    810.81426   -394.63903    330.78499   -20.778795   -10.733916   -47.747987   -230.69492   -10.921023   -48.170329   -20.815605   -10.607742   -36.963781   -230.53604   -10.856125   -38.203896    174.51008   -10.949503   -47.872072    -24.09053   -10.891027   -447.20051 
 1003000    421.23779    862.08114    781.19804   -467.88242     331.0474   -20.740559   -10.741661   -47.788674   -230.68349   -10.940936   -48.146742   -20.806729   -10.529635   -37.011899   -230.51385   -10.848396   -38.212287    174.46369   -10.965649    -47.95858   -24.092841   -10.892016   -447.20339 
 1003100    421.23779    815.55781    761.90016   -445.27831    331.02948   -20.748308   -10.745681   -47.828488   -230.69708   -10.974617   -48.142418   -20.784915   -10.567516   -37.088146   -230.53047   -10.965888   -38.231223    174.45969   -11.045734   -47.943112   -24.095151   -10.893005   -447.20626 
 1003200    421.23779    850.63984    770.52856   -436.79695    330.64127    -20.73115   -10.727766   -47.819696   -230.70528   -10.971991   -48.207169   -20.754492   -10.579393   -37.084582   -230.54398   -10.955338   -38.241792    174.45004   -11.005456   -47.935606   -24.097462   -10.893994   -447.20914 
 1003300    421.23779    867.89643    777.89721   -398.62523    330.84184   -20.712526   -10.717572   -47.825995   -230.72038   -10.966103    -48.20857    -20.70848   -10.582318    -37.09879    -230.5843   -10.989902   -38.275722    174.45537   -10.987124     -47.9499   -24.099773   -10.894983   -447.21202 
 1003400    421.23779    852.62877    827.23582   -385.58034    330.34312   -20.733679   -10.728029   -47.883412   -230.74477   -10.914208   -48.183215   -20.757543   -10.527861    -37.15635   -230.59895   -10.908814   -38.255275    174.45208   -10.973898   -47.967358   -24.102084   -10.895972   -447.21489 
 1003500    421.23779     821.7657    816.10671   -406.62296    330.90833    -20.74055   -10.736135   -47.875015    -230.7498   -10.909412   -48.158094   -20.755013   -10.485605   -37.126431   -230.64266   -10.870895   -38.245385    174.48991   -10.948118   -47.993832   -24.104394   -10.896961   -447.21777 
 1003600    421.23779    859.39228    838.01649   -389.15467    330.84063   -20.725553   -10.699101   -47.905057   -230.70746   -10.929043   -48.125496    -20.78896   -10.491528   -37.138705   -230.60452    -10.85563   -38.202132    174.45552   -10.972538   -48.029234   -24.106705    -10.89795   -447.22065 
 1003700    421.23779    898.66643    847.92087     -324.918    330.28097   -20.726343   -10.706571   -47.865622   -230.72384   -10.921846   -48.120276   -20.823201   -10.547936   -37.110491    -230.5881   -10.867225   -38.138916    174.45393   -10.984509   -47.983582   -24.109016   -10.898939   -447.22352 
 1003800    421.23779    913.61996    845.41544   -301.28676    330.06537   -20.737222   -10.687218   -47.931304   -230.73382   -10.940436   -48.168753   -20.840388   -10.559286   -37.200212   -230.61828   -10.890627   -38.193187    174.42487    -10.97587   -47.977698   -24.111326   -10.899928    -447.2264 
 1003900    421.23779    885.34371    840.27529   -348.28718     330.7834   -20.784406   -10.691244   -47.901228   -230.72105   -10.990243   -48.152313   -20.882522   -10.563903   -37.196167   -230.60114   -10.944853   -38.180805    174.40863   -10.928833   -47.984881   -24.113637   -10.900917   -447.22928 
 1004000    421.23779    866.91776    847.20978   -310.83683    330.45986   -20.838791    -10.73974   -47.912074   -230.75471   -10.958761   -48.223854   -20.889413   -10.553935   -37.192691   -230.66424   -10.860927   -38.313679    174.44454    -10.95447   -47.952417   -24.115948   -10.901906   -447.23216 
 1004100    421.23779     878.4192    872.82307   -362.67982    330.20549   -20.879121   -10.779163   -47.914921   -230.77262   -10.952314   -48.180878   -20.896188   -10.626383   -37.148052   -230.65844   -10.805595    -38.28577    174.41147   -10.931056   -47.983371   -24.118258   -10.902895   -447.23503 
 1004200    421.23779    862.66729    814.42512   -343.93731    330.83065   -20.873029   -10.846886   -47.954356    -230.7504   -10.934899    -48.21746   -20.872217   -10.676356   -37.184628   -230.63176   -10.834274   -38.323849    174.35412    -10.95703    -47.94284   -24.120569   -10.903884   -447.23791 
 1004300    421.23779    859.10105     853.7142    -348.2349    330.69756   -20.876476   -10.838104   -47.934264   -230.74281   -10.916323   -48.153345   -20.925166    -10.69258   -37.168446   -230.62443   -10.835422   -38.228061    174.35826   -10.961375   -47.922686    -24.12288   -10.904873   -447.24079 
 1004400    421.23779    902.88638    875.59864   -309.87358     330.3136   -20.865402   -10.814671    -47.96682   -230.74309   -10.898487   -48.136748   -20.915948   -10.643732   -37.235884   -230.61981   -10.809991   -38.184139    174.39372    -10.93465   -47.876166    -24.12519   -10.905862   -447.24366 
 1004500    421.23779    884.31064    864.53035   -342.78174    330.99274   -20.830687   -10.829824   -48.001461   -230.74036   -10.940812   -48.053509   -20.880688   -10.685334   -37.283057   -230.61248   -10.909088   -38.117341    174.41769   -10.948666    -47.80791   -24.127501   -10.906851   -447.24654 
 1004600    421.23779    958.34451    877.31543   -300.73234      330.459   -20.866792   -10.801527   -47.967862   -230.75242   -10.971674   -48.115691   -20.910929   -10.676611   -37.217117   -230.60062   -10.921909   -38.146051    174.46234   -10.946472   -47.749758   -24.129812    -10.90784   -447.24942 
 1004700    421.23779    926.72668    936.35156   -276.18581    331.02262   -20.853821   -10.808448   -47.963247   -230.75289   -10.979283   -48.073122    -20.89541   -10.678437   -37.182102   -230.57977   -10.950548   -38.113564    174.50221   -10.951869     -47.6965   -24.132122   -10.908829   -447.25229 
 1004800    421.23779    951.38619    964.37482   -228.95739    330.07396   -20.884406   -10.812899   -47.944062   -230.78775   -10.989748   -48.106461   -20.906775   -10.692144   -37.191321   -230.60758   -11.000543   -38.134564    174.48533   -11.001439   -47.703197   -24.134433   -10.909818   -447.25517 
 1004900    421.23779    983.25615    947.23056    -218.3803    330.50049   -20.900197   -10.857928   -48.007833   -230.76708    -10.99868   -48.117862   -20.958767   -10.690752   -37.270551   -230.54568   -11.000644    -38.10809    174.44154   -11.019022   -47.741006   -24.136744   -10.910807   -447.25805 
 1005000    421.23779    953.18121    903.52927    -215.1651     330.9084   -20.917339   -10.885854   -48.020554   -230.76602   -11.015804   -48.111932   -20.987643   -10.736056   -37.307546   -230.57799   -10.974861    -38.14524    174.46642   -11.021249   -47.801255   -24.139054   -10.911796   -447.26092 
Loop time of 6226.74 on 512 procs for 1000000 steps with 345185 atoms

Performance: 27.751 ns/day, 0.865 hours/ns, 160.598 timesteps/s
99.9% CPU use with 512 MPI tasks x no OpenMP threads

MPI task timing breakdown:
Section |  min time  |  avg time  |  max time  |%varavg| %total
---------------------------------------------------------------
Pair    | 1247.9     | 3824.1     | 4155.3     | 904.6 | 61.41
Neigh   | 2.4882     | 55.758     | 61.343     | 172.9 |  0.90
Comm    | 657.36     | 874.35     | 1648.2     | 614.8 | 14.04
Output  | 4.7212     | 5.1572     | 5.6536     |   1.6 |  0.08
Modify  | 45.413     | 51.689     | 82.536     |  79.4 |  0.83
Other   |            | 1416       |            |       | 22.74

Nlocal:    674.189 ave 728 max 0 min
Histogram: 16 0 0 16 0 0 16 0 0 464
Nghost:    2924.29 ave 3333 max 0 min
Histogram: 16 0 0 13 3 16 0 0 16 448
Neighs:    47369 ave 52075 max 0 min
Histogram: 16 0 16 0 0 0 16 0 0 464

Total # of neighbors = 24252950
Ave neighs/atom = 70.2607
Neighbor list builds = 21069
Dangerous builds = 0



Total wall time: 1:46:36
= 0



Total wall time: 1:39:13



Total wall time: 1:40:10
time: 1:39:17
uilds = 0



Total wall time: 1:39:54
 0 0 16 0 0 464
Neighs:    47381.1 ave 52177 max 0 min
Histogram: 16 0 16 0 0 1 15 0 0 464

Total # of neighbors = 24259118
Ave neighs/atom = 70.2705
Neighbor list builds = 21136
Dangerous builds = 0



Total wall time: 1:39:44
